s 0.500000000 _0_ AGT  --- 0 cbr 1000 [0 0 0 0] ------- [0:0 7:0 32 0] [0] 0 0
r 0.500000000 _0_ RTR  --- 0 cbr 1000 [0 0 0 0] ------- [0:0 7:0 32 0] [0] 0 0
s 0.500000000 _3_ AGT  --- 1 cbr 1000 [0 0 0 0] ------- [3:0 9:0 32 0] [0] 0 0
r 0.500000000 _3_ RTR  --- 1 cbr 1000 [0 0 0 0] ------- [3:0 9:0 32 0] [0] 0 0
s 0.500000000 _0_ RTR  --- 0 AODV 48 [0 0 0 0] ------- [0:255 -1:255 30 0] [0x2 1 1 [7 0] [0 4]] (REQUEST)
s 0.500000000 _3_ RTR  --- 0 AODV 48 [0 0 0 0] ------- [3:255 -1:255 30 0] [0x2 1 1 [9 0] [3 4]] (REQUEST)
s 0.500115000 _3_ MAC  --- 0 AODV 106 [0 ffffffff 3 800] ------- [3:255 -1:255 30 0] [0x2 1 1 [9 0] [3 4]] (REQUEST)
r 0.500963774 _4_ MAC  --- 0 AODV 48 [0 ffffffff 3 800] ------- [3:255 -1:255 30 0] [0x2 1 1 [9 0] [3 4]] (REQUEST)
r 0.500963823 _6_ MAC  --- 0 AODV 48 [0 ffffffff 3 800] ------- [3:255 -1:255 30 0] [0x2 1 1 [9 0] [3 4]] (REQUEST)
r 0.500963826 _0_ MAC  --- 0 AODV 48 [0 ffffffff 3 800] ------- [3:255 -1:255 30 0] [0x2 1 1 [9 0] [3 4]] (REQUEST)
r 0.500988774 _4_ RTR  --- 0 AODV 48 [0 ffffffff 3 800] ------- [3:255 -1:255 30 0] [0x2 1 1 [9 0] [3 4]] (REQUEST)
r 0.500988823 _6_ RTR  --- 0 AODV 48 [0 ffffffff 3 800] ------- [3:255 -1:255 30 0] [0x2 1 1 [9 0] [3 4]] (REQUEST)
r 0.500988826 _0_ RTR  --- 0 AODV 48 [0 ffffffff 3 800] ------- [3:255 -1:255 30 0] [0x2 1 1 [9 0] [3 4]] (REQUEST)
s 0.501433826 _0_ MAC  --- 0 AODV 106 [0 ffffffff 0 800] ------- [0:255 -1:255 30 0] [0x2 1 1 [7 0] [0 4]] (REQUEST)
s 0.501870000 _4_ RTR  --- 0 AODV 48 [0 ffffffff 3 800] ------- [4:255 -1:255 29 0] [0x2 2 1 [9 0] [3 4]] (REQUEST)
r 0.502282538 _1_ MAC  --- 0 AODV 48 [0 ffffffff 0 800] ------- [0:255 -1:255 30 0] [0x2 1 1 [7 0] [0 4]] (REQUEST)
r 0.502282586 _4_ MAC  --- 0 AODV 48 [0 ffffffff 0 800] ------- [0:255 -1:255 30 0] [0x2 1 1 [7 0] [0 4]] (REQUEST)
r 0.502282652 _3_ MAC  --- 0 AODV 48 [0 ffffffff 0 800] ------- [0:255 -1:255 30 0] [0x2 1 1 [7 0] [0 4]] (REQUEST)
r 0.502307538 _1_ RTR  --- 0 AODV 48 [0 ffffffff 0 800] ------- [0:255 -1:255 30 0] [0x2 1 1 [7 0] [0 4]] (REQUEST)
r 0.502307586 _4_ RTR  --- 0 AODV 48 [0 ffffffff 0 800] ------- [0:255 -1:255 30 0] [0x2 1 1 [7 0] [0 4]] (REQUEST)
r 0.502307652 _3_ RTR  --- 0 AODV 48 [0 ffffffff 0 800] ------- [0:255 -1:255 30 0] [0x2 1 1 [7 0] [0 4]] (REQUEST)
s 0.502492586 _4_ MAC  --- 0 AODV 106 [0 ffffffff 4 800] ------- [4:255 -1:255 29 0] [0x2 2 1 [9 0] [3 4]] (REQUEST)
r 0.503341156 _1_ MAC  --- 0 AODV 48 [0 ffffffff 4 800] ------- [4:255 -1:255 29 0] [0x2 2 1 [9 0] [3 4]] (REQUEST)
r 0.503341301 _2_ MAC  --- 0 AODV 48 [0 ffffffff 4 800] ------- [4:255 -1:255 29 0] [0x2 2 1 [9 0] [3 4]] (REQUEST)
r 0.503341347 _0_ MAC  --- 0 AODV 48 [0 ffffffff 4 800] ------- [4:255 -1:255 29 0] [0x2 2 1 [9 0] [3 4]] (REQUEST)
r 0.503341360 _3_ MAC  --- 0 AODV 48 [0 ffffffff 4 800] ------- [4:255 -1:255 29 0] [0x2 2 1 [9 0] [3 4]] (REQUEST)
r 0.503341370 _5_ MAC  --- 0 AODV 48 [0 ffffffff 4 800] ------- [4:255 -1:255 29 0] [0x2 2 1 [9 0] [3 4]] (REQUEST)
r 0.503366156 _1_ RTR  --- 0 AODV 48 [0 ffffffff 4 800] ------- [4:255 -1:255 29 0] [0x2 2 1 [9 0] [3 4]] (REQUEST)
r 0.503366301 _2_ RTR  --- 0 AODV 48 [0 ffffffff 4 800] ------- [4:255 -1:255 29 0] [0x2 2 1 [9 0] [3 4]] (REQUEST)
r 0.503366347 _0_ RTR  --- 0 AODV 48 [0 ffffffff 4 800] ------- [4:255 -1:255 29 0] [0x2 2 1 [9 0] [3 4]] (REQUEST)
r 0.503366360 _3_ RTR  --- 0 AODV 48 [0 ffffffff 4 800] ------- [4:255 -1:255 29 0] [0x2 2 1 [9 0] [3 4]] (REQUEST)
r 0.503366370 _5_ RTR  --- 0 AODV 48 [0 ffffffff 4 800] ------- [4:255 -1:255 29 0] [0x2 2 1 [9 0] [3 4]] (REQUEST)
s 0.503794247 _2_ RTR  --- 0 AODV 48 [0 ffffffff 4 800] ------- [2:255 -1:255 28 0] [0x2 3 1 [9 0] [3 4]] (REQUEST)
s 0.504229247 _2_ MAC  --- 0 AODV 106 [0 ffffffff 2 800] ------- [2:255 -1:255 28 0] [0x2 3 1 [9 0] [3 4]] (REQUEST)
s 0.504653556 _1_ RTR  --- 0 AODV 48 [0 ffffffff 0 800] ------- [1:255 -1:255 29 0] [0x2 2 1 [7 0] [0 4]] (REQUEST)
s 0.505007610 _1_ RTR  --- 0 AODV 48 [0 ffffffff 4 800] ------- [1:255 -1:255 28 0] [0x2 3 1 [9 0] [3 4]] (REQUEST)
r 0.505077863 _5_ MAC  --- 0 AODV 48 [0 ffffffff 2 800] ------- [2:255 -1:255 28 0] [0x2 3 1 [9 0] [3 4]] (REQUEST)
r 0.505077961 _4_ MAC  --- 0 AODV 48 [0 ffffffff 2 800] ------- [2:255 -1:255 28 0] [0x2 3 1 [9 0] [3 4]] (REQUEST)
r 0.505077985 _7_ MAC  --- 0 AODV 48 [0 ffffffff 2 800] ------- [2:255 -1:255 28 0] [0x2 3 1 [9 0] [3 4]] (REQUEST)
r 0.505078017 _1_ MAC  --- 0 AODV 48 [0 ffffffff 2 800] ------- [2:255 -1:255 28 0] [0x2 3 1 [9 0] [3 4]] (REQUEST)
r 0.505102863 _5_ RTR  --- 0 AODV 48 [0 ffffffff 2 800] ------- [2:255 -1:255 28 0] [0x2 3 1 [9 0] [3 4]] (REQUEST)
r 0.505102961 _4_ RTR  --- 0 AODV 48 [0 ffffffff 2 800] ------- [2:255 -1:255 28 0] [0x2 3 1 [9 0] [3 4]] (REQUEST)
r 0.505102985 _7_ RTR  --- 0 AODV 48 [0 ffffffff 2 800] ------- [2:255 -1:255 28 0] [0x2 3 1 [9 0] [3 4]] (REQUEST)
r 0.505103017 _1_ RTR  --- 0 AODV 48 [0 ffffffff 2 800] ------- [2:255 -1:255 28 0] [0x2 3 1 [9 0] [3 4]] (REQUEST)
s 0.505368017 _1_ MAC  --- 0 AODV 106 [0 ffffffff 1 800] ------- [1:255 -1:255 29 0] [0x2 2 1 [7 0] [0 4]] (REQUEST)
s 0.505398443 _3_ RTR  --- 0 AODV 48 [0 ffffffff 0 800] ------- [3:255 -1:255 29 0] [0x2 2 1 [7 0] [0 4]] (REQUEST)
s 0.505400557 _6_ RTR  --- 0 AODV 48 [0 ffffffff 3 800] ------- [6:255 -1:255 29 0] [0x2 2 1 [9 0] [3 4]] (REQUEST)
r 0.506216587 _4_ MAC  --- 0 AODV 48 [0 ffffffff 1 800] ------- [1:255 -1:255 29 0] [0x2 2 1 [7 0] [0 4]] (REQUEST)
r 0.506216729 _0_ MAC  --- 0 AODV 48 [0 ffffffff 1 800] ------- [1:255 -1:255 29 0] [0x2 2 1 [7 0] [0 4]] (REQUEST)
r 0.506216788 _2_ MAC  --- 0 AODV 48 [0 ffffffff 1 800] ------- [1:255 -1:255 29 0] [0x2 2 1 [7 0] [0 4]] (REQUEST)
r 0.506241587 _4_ RTR  --- 0 AODV 48 [0 ffffffff 1 800] ------- [1:255 -1:255 29 0] [0x2 2 1 [7 0] [0 4]] (REQUEST)
r 0.506241729 _0_ RTR  --- 0 AODV 48 [0 ffffffff 1 800] ------- [1:255 -1:255 29 0] [0x2 2 1 [7 0] [0 4]] (REQUEST)
r 0.506241788 _2_ RTR  --- 0 AODV 48 [0 ffffffff 1 800] ------- [1:255 -1:255 29 0] [0x2 2 1 [7 0] [0 4]] (REQUEST)
s 0.506466017 _1_ MAC  --- 0 AODV 106 [0 ffffffff 1 800] ------- [1:255 -1:255 28 0] [0x2 3 1 [9 0] [3 4]] (REQUEST)
s 0.506851038 _7_ RTR  --- 0 AODV 48 [0 ffffffff 2 800] ------- [7:255 -1:255 27 0] [0x2 4 1 [9 0] [3 4]] (REQUEST)
r 0.507314587 _4_ MAC  --- 0 AODV 48 [0 ffffffff 1 800] ------- [1:255 -1:255 28 0] [0x2 3 1 [9 0] [3 4]] (REQUEST)
r 0.507314729 _0_ MAC  --- 0 AODV 48 [0 ffffffff 1 800] ------- [1:255 -1:255 28 0] [0x2 3 1 [9 0] [3 4]] (REQUEST)
r 0.507314788 _2_ MAC  --- 0 AODV 48 [0 ffffffff 1 800] ------- [1:255 -1:255 28 0] [0x2 3 1 [9 0] [3 4]] (REQUEST)
r 0.507339587 _4_ RTR  --- 0 AODV 48 [0 ffffffff 1 800] ------- [1:255 -1:255 28 0] [0x2 3 1 [9 0] [3 4]] (REQUEST)
r 0.507339729 _0_ RTR  --- 0 AODV 48 [0 ffffffff 1 800] ------- [1:255 -1:255 28 0] [0x2 3 1 [9 0] [3 4]] (REQUEST)
r 0.507339788 _2_ RTR  --- 0 AODV 48 [0 ffffffff 1 800] ------- [1:255 -1:255 28 0] [0x2 3 1 [9 0] [3 4]] (REQUEST)
s 0.507749485 _7_ MAC  --- 0 AODV 106 [0 ffffffff 7 800] ------- [7:255 -1:255 27 0] [0x2 4 1 [9 0] [3 4]] (REQUEST)
r 0.508597924 _5_ MAC  --- 0 AODV 48 [0 ffffffff 7 800] ------- [7:255 -1:255 27 0] [0x2 4 1 [9 0] [3 4]] (REQUEST)
r 0.508598097 _9_ MAC  --- 0 AODV 48 [0 ffffffff 7 800] ------- [7:255 -1:255 27 0] [0x2 4 1 [9 0] [3 4]] (REQUEST)
r 0.508598205 _8_ MAC  --- 0 AODV 48 [0 ffffffff 7 800] ------- [7:255 -1:255 27 0] [0x2 4 1 [9 0] [3 4]] (REQUEST)
r 0.508598223 _2_ MAC  --- 0 AODV 48 [0 ffffffff 7 800] ------- [7:255 -1:255 27 0] [0x2 4 1 [9 0] [3 4]] (REQUEST)
r 0.508622924 _5_ RTR  --- 0 AODV 48 [0 ffffffff 7 800] ------- [7:255 -1:255 27 0] [0x2 4 1 [9 0] [3 4]] (REQUEST)
r 0.508623097 _9_ RTR  --- 0 AODV 48 [0 ffffffff 7 800] ------- [7:255 -1:255 27 0] [0x2 4 1 [9 0] [3 4]] (REQUEST)
s 0.508623097 _9_ RTR  --- 0 AODV 44 [0 0 0 0] ------- [9:255 3:255 30 7] [0x4 1 [9 4] 10.000000] (REPLY)
r 0.508623205 _8_ RTR  --- 0 AODV 48 [0 ffffffff 7 800] ------- [7:255 -1:255 27 0] [0x2 4 1 [9 0] [3 4]] (REQUEST)
r 0.508623223 _2_ RTR  --- 0 AODV 48 [0 ffffffff 7 800] ------- [7:255 -1:255 27 0] [0x2 4 1 [9 0] [3 4]] (REQUEST)
s 0.508696238 _4_ RTR  --- 0 AODV 48 [0 ffffffff 0 800] ------- [4:255 -1:255 29 0] [0x2 2 1 [7 0] [0 4]] (REQUEST)
s 0.508822667 _2_ RTR  --- 0 AODV 48 [0 ffffffff 1 800] ------- [2:255 -1:255 28 0] [0x2 3 1 [7 0] [0 4]] (REQUEST)
s 0.508980381 _0_ RTR  --- 0 AODV 48 [0 ffffffff 3 800] ------- [0:255 -1:255 29 0] [0x2 2 1 [9 0] [3 4]] (REQUEST)
s 0.509258097 _9_ MAC  --- 0 ARP 86 [0 ffffffff 9 806] ------- [REQUEST 9/9 0/7]
s 0.509333207 _3_ MAC  --- 0 AODV 106 [0 ffffffff 3 800] ------- [3:255 -1:255 29 0] [0x2 2 1 [7 0] [0 4]] (REQUEST)
s 0.509767046 _5_ RTR  --- 0 AODV 48 [0 ffffffff 4 800] ------- [5:255 -1:255 28 0] [0x2 3 1 [9 0] [3 4]] (REQUEST)
r 0.509946690 _8_ MAC  --- 0 ARP 28 [0 ffffffff 9 806] ------- [REQUEST 9/9 0/7]
r 0.509946709 _7_ MAC  --- 0 ARP 28 [0 ffffffff 9 806] ------- [REQUEST 9/9 0/7]
D 0.510181981 _4_ MAC  COL 0 AODV 106 [0 ffffffff 3 800] ------- [3:255 -1:255 29 0] [0x2 2 1 [7 0] [0 4]] (REQUEST)
D 0.510182030 _6_ MAC  COL 0 AODV 106 [0 ffffffff 3 800] ------- [3:255 -1:255 29 0] [0x2 2 1 [7 0] [0 4]] (REQUEST)
r 0.510182034 _0_ MAC  --- 0 AODV 48 [0 ffffffff 3 800] ------- [3:255 -1:255 29 0] [0x2 2 1 [7 0] [0 4]] (REQUEST)
r 0.510207034 _0_ RTR  --- 0 AODV 48 [0 ffffffff 3 800] ------- [3:255 -1:255 29 0] [0x2 2 1 [7 0] [0 4]] (REQUEST)
s 0.510332034 _0_ MAC  --- 0 AODV 106 [0 ffffffff 0 800] ------- [0:255 -1:255 29 0] [0x2 2 1 [9 0] [3 4]] (REQUEST)
s 0.510956930 _7_ MAC  --- 0 RTS 44 [52e 9 7 0] 
D 0.510958107 _4_ MAC  COL 0 AODV 106 [0 ffffffff 0 800] ------- [0:255 -1:255 29 0] [0x2 2 1 [9 0] [3 4]] (REQUEST)
r 0.511180746 _1_ MAC  --- 0 AODV 48 [0 ffffffff 0 800] ------- [0:255 -1:255 29 0] [0x2 2 1 [9 0] [3 4]] (REQUEST)
r 0.511180860 _3_ MAC  --- 0 AODV 48 [0 ffffffff 0 800] ------- [0:255 -1:255 29 0] [0x2 2 1 [9 0] [3 4]] (REQUEST)
r 0.511205746 _1_ RTR  --- 0 AODV 48 [0 ffffffff 0 800] ------- [0:255 -1:255 29 0] [0x2 2 1 [9 0] [3 4]] (REQUEST)
r 0.511205860 _3_ RTR  --- 0 AODV 48 [0 ffffffff 0 800] ------- [0:255 -1:255 29 0] [0x2 2 1 [9 0] [3 4]] (REQUEST)
r 0.511309542 _9_ MAC  --- 0 RTS 44 [52e 9 7 0] 
s 0.511319542 _9_ MAC  --- 0 CTS 38 [3f4 7 0 0] 
r 0.511624154 _7_ MAC  --- 0 CTS 38 [3f4 7 0 0] 
s 0.511634154 _7_ MAC  --- 0 ARP 86 [13a 9 7 806] ------- [REPLY 7/7 9/9]
r 0.512322766 _9_ MAC  --- 0 ARP 28 [13a 9 7 806] ------- [REPLY 7/7 9/9]
s 0.512332766 _9_ MAC  --- 0 ACK 38 [0 7 0 0] 
r 0.512637378 _7_ MAC  --- 0 ACK 38 [0 7 0 0] 
s 0.512966766 _9_ MAC  --- 0 RTS 44 [5ae 7 9 0] 
r 0.513319378 _7_ MAC  --- 0 RTS 44 [5ae 7 9 0] 
s 0.513329378 _7_ MAC  --- 0 CTS 38 [474 9 0 0] 
r 0.513633990 _9_ MAC  --- 0 CTS 38 [474 9 0 0] 
s 0.513643990 _9_ MAC  --- 0 AODV 102 [13a 7 9 800] ------- [9:255 3:255 30 7] [0x4 1 [9 4] 10.000000] (REPLY)
r 0.514460602 _7_ MAC  --- 0 AODV 44 [13a 7 9 800] ------- [9:255 3:255 30 7] [0x4 1 [9 4] 10.000000] (REPLY)
s 0.514470602 _7_ MAC  --- 0 ACK 38 [0 9 0 0] 
r 0.514485602 _7_ RTR  --- 0 AODV 44 [13a 7 9 800] ------- [9:255 3:255 30 7] [0x4 1 [9 4] 10.000000] (REPLY)
f 0.514485602 _7_ RTR  --- 0 AODV 44 [13a 7 9 800] ------- [9:255 3:255 29 2] [0x4 2 [9 4] 10.000000] (REPLY)
r 0.514775214 _9_ MAC  --- 0 ACK 38 [0 9 0 0] 
s 0.514914885 _5_ MAC  --- 0 AODV 106 [0 ffffffff 5 800] ------- [5:255 -1:255 28 0] [0x2 3 1 [9 0] [3 4]] (REQUEST)
s 0.515546273 _8_ RTR  --- 0 AODV 48 [0 ffffffff 7 800] ------- [8:255 -1:255 26 0] [0x2 5 1 [9 0] [3 4]] (REQUEST)
r 0.515763325 _7_ MAC  --- 0 AODV 48 [0 ffffffff 5 800] ------- [5:255 -1:255 28 0] [0x2 3 1 [9 0] [3 4]] (REQUEST)
r 0.515763501 _2_ MAC  --- 0 AODV 48 [0 ffffffff 5 800] ------- [5:255 -1:255 28 0] [0x2 3 1 [9 0] [3 4]] (REQUEST)
r 0.515763541 _8_ MAC  --- 0 AODV 48 [0 ffffffff 5 800] ------- [5:255 -1:255 28 0] [0x2 3 1 [9 0] [3 4]] (REQUEST)
r 0.515763639 _6_ MAC  --- 0 AODV 48 [0 ffffffff 5 800] ------- [5:255 -1:255 28 0] [0x2 3 1 [9 0] [3 4]] (REQUEST)
r 0.515763669 _4_ MAC  --- 0 AODV 48 [0 ffffffff 5 800] ------- [5:255 -1:255 28 0] [0x2 3 1 [9 0] [3 4]] (REQUEST)
r 0.515788325 _7_ RTR  --- 0 AODV 48 [0 ffffffff 5 800] ------- [5:255 -1:255 28 0] [0x2 3 1 [9 0] [3 4]] (REQUEST)
r 0.515788501 _2_ RTR  --- 0 AODV 48 [0 ffffffff 5 800] ------- [5:255 -1:255 28 0] [0x2 3 1 [9 0] [3 4]] (REQUEST)
r 0.515788541 _8_ RTR  --- 0 AODV 48 [0 ffffffff 5 800] ------- [5:255 -1:255 28 0] [0x2 3 1 [9 0] [3 4]] (REQUEST)
r 0.515788639 _6_ RTR  --- 0 AODV 48 [0 ffffffff 5 800] ------- [5:255 -1:255 28 0] [0x2 3 1 [9 0] [3 4]] (REQUEST)
r 0.515788669 _4_ RTR  --- 0 AODV 48 [0 ffffffff 5 800] ------- [5:255 -1:255 28 0] [0x2 3 1 [9 0] [3 4]] (REQUEST)
s 0.515833325 _7_ MAC  --- 0 ARP 86 [0 ffffffff 7 806] ------- [REQUEST 7/7 0/2]
r 0.516521765 _5_ MAC  --- 0 ARP 28 [0 ffffffff 7 806] ------- [REQUEST 7/7 0/2]
r 0.516521937 _9_ MAC  --- 0 ARP 28 [0 ffffffff 7 806] ------- [REQUEST 7/7 0/2]
r 0.516522045 _8_ MAC  --- 0 ARP 28 [0 ffffffff 7 806] ------- [REQUEST 7/7 0/2]
r 0.516522064 _2_ MAC  --- 0 ARP 28 [0 ffffffff 7 806] ------- [REQUEST 7/7 0/2]
s 0.516692064 _2_ MAC  --- 0 AODV 106 [0 ffffffff 2 800] ------- [2:255 -1:255 28 0] [0x2 3 1 [7 0] [0 4]] (REQUEST)
r 0.517540680 _5_ MAC  --- 0 AODV 48 [0 ffffffff 2 800] ------- [2:255 -1:255 28 0] [0x2 3 1 [7 0] [0 4]] (REQUEST)
r 0.517540778 _4_ MAC  --- 0 AODV 48 [0 ffffffff 2 800] ------- [2:255 -1:255 28 0] [0x2 3 1 [7 0] [0 4]] (REQUEST)
r 0.517540802 _7_ MAC  --- 0 AODV 48 [0 ffffffff 2 800] ------- [2:255 -1:255 28 0] [0x2 3 1 [7 0] [0 4]] (REQUEST)
r 0.517540834 _1_ MAC  --- 0 AODV 48 [0 ffffffff 2 800] ------- [2:255 -1:255 28 0] [0x2 3 1 [7 0] [0 4]] (REQUEST)
r 0.517565680 _5_ RTR  --- 0 AODV 48 [0 ffffffff 2 800] ------- [2:255 -1:255 28 0] [0x2 3 1 [7 0] [0 4]] (REQUEST)
r 0.517565778 _4_ RTR  --- 0 AODV 48 [0 ffffffff 2 800] ------- [2:255 -1:255 28 0] [0x2 3 1 [7 0] [0 4]] (REQUEST)
r 0.517565802 _7_ RTR  --- 0 AODV 48 [0 ffffffff 2 800] ------- [2:255 -1:255 28 0] [0x2 3 1 [7 0] [0 4]] (REQUEST)
s 0.517565802 _7_ RTR  --- 0 AODV 44 [0 0 0 0] ------- [7:255 0:255 30 2] [0x4 1 [7 4] 10.000000] (REPLY)
D 0.517565802 _7_ IFQ  ARP 0 AODV 44 [13a 7 7 800] ------- [9:255 3:255 29 2] [0x4 2 [9 4] 10.000000] (REPLY)
r 0.517565834 _1_ RTR  --- 0 AODV 48 [0 ffffffff 2 800] ------- [2:255 -1:255 28 0] [0x2 3 1 [7 0] [0 4]] (REQUEST)
s 0.517650064 _2_ MAC  --- 0 RTS 44 [52e 7 2 0] 
s 0.517673763 _5_ RTR  --- 0 AODV 48 [0 ffffffff 2 800] ------- [5:255 -1:255 27 0] [0x2 4 1 [7 0] [0 4]] (REQUEST)
r 0.518002802 _7_ MAC  --- 0 RTS 44 [52e 7 2 0] 
s 0.518012802 _7_ MAC  --- 0 CTS 38 [3f4 2 0 0] 
r 0.518317541 _2_ MAC  --- 0 CTS 38 [3f4 2 0 0] 
s 0.518327541 _2_ MAC  --- 0 ARP 86 [13a 7 2 806] ------- [REPLY 2/2 7/7]
r 0.519016279 _7_ MAC  --- 0 ARP 28 [13a 7 2 806] ------- [REPLY 2/2 7/7]
s 0.519026279 _7_ MAC  --- 0 ACK 38 [0 2 0 0] 
r 0.519331018 _2_ MAC  --- 0 ACK 38 [0 2 0 0] 
s 0.519510804 _8_ MAC  --- 0 AODV 106 [0 ffffffff 8 800] ------- [8:255 -1:255 26 0] [0x2 5 1 [9 0] [3 4]] (REQUEST)
r 0.520359397 _9_ MAC  --- 0 AODV 48 [0 ffffffff 8 800] ------- [8:255 -1:255 26 0] [0x2 5 1 [9 0] [3 4]] (REQUEST)
r 0.520359459 _5_ MAC  --- 0 AODV 48 [0 ffffffff 8 800] ------- [8:255 -1:255 26 0] [0x2 5 1 [9 0] [3 4]] (REQUEST)
r 0.520359524 _7_ MAC  --- 0 AODV 48 [0 ffffffff 8 800] ------- [8:255 -1:255 26 0] [0x2 5 1 [9 0] [3 4]] (REQUEST)
r 0.520359531 _6_ MAC  --- 0 AODV 48 [0 ffffffff 8 800] ------- [8:255 -1:255 26 0] [0x2 5 1 [9 0] [3 4]] (REQUEST)
r 0.520384397 _9_ RTR  --- 0 AODV 48 [0 ffffffff 8 800] ------- [8:255 -1:255 26 0] [0x2 5 1 [9 0] [3 4]] (REQUEST)
r 0.520384459 _5_ RTR  --- 0 AODV 48 [0 ffffffff 8 800] ------- [8:255 -1:255 26 0] [0x2 5 1 [9 0] [3 4]] (REQUEST)
r 0.520384524 _7_ RTR  --- 0 AODV 48 [0 ffffffff 8 800] ------- [8:255 -1:255 26 0] [0x2 5 1 [9 0] [3 4]] (REQUEST)
r 0.520384531 _6_ RTR  --- 0 AODV 48 [0 ffffffff 8 800] ------- [8:255 -1:255 26 0] [0x2 5 1 [9 0] [3 4]] (REQUEST)
s 0.520449531 _6_ MAC  --- 0 AODV 106 [0 ffffffff 6 800] ------- [6:255 -1:255 29 0] [0x2 2 1 [9 0] [3 4]] (REQUEST)
r 0.521298259 _8_ MAC  --- 0 AODV 48 [0 ffffffff 6 800] ------- [6:255 -1:255 29 0] [0x2 2 1 [9 0] [3 4]] (REQUEST)
r 0.521298285 _5_ MAC  --- 0 AODV 48 [0 ffffffff 6 800] ------- [6:255 -1:255 29 0] [0x2 2 1 [9 0] [3 4]] (REQUEST)
r 0.521298354 _3_ MAC  --- 0 AODV 48 [0 ffffffff 6 800] ------- [6:255 -1:255 29 0] [0x2 2 1 [9 0] [3 4]] (REQUEST)
r 0.521323259 _8_ RTR  --- 0 AODV 48 [0 ffffffff 6 800] ------- [6:255 -1:255 29 0] [0x2 2 1 [9 0] [3 4]] (REQUEST)
r 0.521323285 _5_ RTR  --- 0 AODV 48 [0 ffffffff 6 800] ------- [6:255 -1:255 29 0] [0x2 2 1 [9 0] [3 4]] (REQUEST)
r 0.521323354 _3_ RTR  --- 0 AODV 48 [0 ffffffff 6 800] ------- [6:255 -1:255 29 0] [0x2 2 1 [9 0] [3 4]] (REQUEST)
s 0.521528285 _5_ MAC  --- 0 AODV 106 [0 ffffffff 5 800] ------- [5:255 -1:255 27 0] [0x2 4 1 [7 0] [0 4]] (REQUEST)
r 0.522376725 _7_ MAC  --- 0 AODV 48 [0 ffffffff 5 800] ------- [5:255 -1:255 27 0] [0x2 4 1 [7 0] [0 4]] (REQUEST)
r 0.522376901 _2_ MAC  --- 0 AODV 48 [0 ffffffff 5 800] ------- [5:255 -1:255 27 0] [0x2 4 1 [7 0] [0 4]] (REQUEST)
r 0.522376940 _8_ MAC  --- 0 AODV 48 [0 ffffffff 5 800] ------- [5:255 -1:255 27 0] [0x2 4 1 [7 0] [0 4]] (REQUEST)
r 0.522377039 _6_ MAC  --- 0 AODV 48 [0 ffffffff 5 800] ------- [5:255 -1:255 27 0] [0x2 4 1 [7 0] [0 4]] (REQUEST)
r 0.522377068 _4_ MAC  --- 0 AODV 48 [0 ffffffff 5 800] ------- [5:255 -1:255 27 0] [0x2 4 1 [7 0] [0 4]] (REQUEST)
r 0.522401725 _7_ RTR  --- 0 AODV 48 [0 ffffffff 5 800] ------- [5:255 -1:255 27 0] [0x2 4 1 [7 0] [0 4]] (REQUEST)
r 0.522401901 _2_ RTR  --- 0 AODV 48 [0 ffffffff 5 800] ------- [5:255 -1:255 27 0] [0x2 4 1 [7 0] [0 4]] (REQUEST)
r 0.522401940 _8_ RTR  --- 0 AODV 48 [0 ffffffff 5 800] ------- [5:255 -1:255 27 0] [0x2 4 1 [7 0] [0 4]] (REQUEST)
r 0.522402039 _6_ RTR  --- 0 AODV 48 [0 ffffffff 5 800] ------- [5:255 -1:255 27 0] [0x2 4 1 [7 0] [0 4]] (REQUEST)
r 0.522402068 _4_ RTR  --- 0 AODV 48 [0 ffffffff 5 800] ------- [5:255 -1:255 27 0] [0x2 4 1 [7 0] [0 4]] (REQUEST)
s 0.522507068 _4_ MAC  --- 0 AODV 106 [0 ffffffff 4 800] ------- [4:255 -1:255 29 0] [0x2 2 1 [7 0] [0 4]] (REQUEST)
r 0.523355638 _1_ MAC  --- 0 AODV 48 [0 ffffffff 4 800] ------- [4:255 -1:255 29 0] [0x2 2 1 [7 0] [0 4]] (REQUEST)
r 0.523355783 _2_ MAC  --- 0 AODV 48 [0 ffffffff 4 800] ------- [4:255 -1:255 29 0] [0x2 2 1 [7 0] [0 4]] (REQUEST)
r 0.523355829 _0_ MAC  --- 0 AODV 48 [0 ffffffff 4 800] ------- [4:255 -1:255 29 0] [0x2 2 1 [7 0] [0 4]] (REQUEST)
r 0.523355842 _3_ MAC  --- 0 AODV 48 [0 ffffffff 4 800] ------- [4:255 -1:255 29 0] [0x2 2 1 [7 0] [0 4]] (REQUEST)
r 0.523355852 _5_ MAC  --- 0 AODV 48 [0 ffffffff 4 800] ------- [4:255 -1:255 29 0] [0x2 2 1 [7 0] [0 4]] (REQUEST)
r 0.523380638 _1_ RTR  --- 0 AODV 48 [0 ffffffff 4 800] ------- [4:255 -1:255 29 0] [0x2 2 1 [7 0] [0 4]] (REQUEST)
r 0.523380783 _2_ RTR  --- 0 AODV 48 [0 ffffffff 4 800] ------- [4:255 -1:255 29 0] [0x2 2 1 [7 0] [0 4]] (REQUEST)
r 0.523380829 _0_ RTR  --- 0 AODV 48 [0 ffffffff 4 800] ------- [4:255 -1:255 29 0] [0x2 2 1 [7 0] [0 4]] (REQUEST)
r 0.523380842 _3_ RTR  --- 0 AODV 48 [0 ffffffff 4 800] ------- [4:255 -1:255 29 0] [0x2 2 1 [7 0] [0 4]] (REQUEST)
r 0.523380852 _5_ RTR  --- 0 AODV 48 [0 ffffffff 4 800] ------- [4:255 -1:255 29 0] [0x2 2 1 [7 0] [0 4]] (REQUEST)
s 0.523930245 _7_ MAC  --- 0 ARP 86 [0 ffffffff 7 806] ------- [REQUEST 7/7 0/2]
r 0.524618685 _5_ MAC  --- 0 ARP 28 [0 ffffffff 7 806] ------- [REQUEST 7/7 0/2]
r 0.524618857 _9_ MAC  --- 0 ARP 28 [0 ffffffff 7 806] ------- [REQUEST 7/7 0/2]
r 0.524618966 _8_ MAC  --- 0 ARP 28 [0 ffffffff 7 806] ------- [REQUEST 7/7 0/2]
r 0.524618984 _2_ MAC  --- 0 ARP 28 [0 ffffffff 7 806] ------- [REQUEST 7/7 0/2]
s 0.524833984 _2_ MAC  --- 0 RTS 44 [52e 7 2 0] 
r 0.525186723 _7_ MAC  --- 0 RTS 44 [52e 7 2 0] 
s 0.525196723 _7_ MAC  --- 0 CTS 38 [3f4 2 0 0] 
r 0.525501461 _2_ MAC  --- 0 CTS 38 [3f4 2 0 0] 
s 0.525511461 _2_ MAC  --- 0 ARP 86 [13a 7 2 806] ------- [REPLY 2/2 7/7]
r 0.526200200 _7_ MAC  --- 0 ARP 28 [13a 7 2 806] ------- [REPLY 2/2 7/7]
s 0.526210200 _7_ MAC  --- 0 ACK 38 [0 2 0 0] 
r 0.526514938 _2_ MAC  --- 0 ACK 38 [0 2 0 0] 
s 0.526724200 _7_ MAC  --- 0 RTS 44 [5ae 2 7 0] 
r 0.527076938 _2_ MAC  --- 0 RTS 44 [5ae 2 7 0] 
s 0.527086938 _2_ MAC  --- 0 CTS 38 [474 7 0 0] 
r 0.527391677 _7_ MAC  --- 0 CTS 38 [474 7 0 0] 
s 0.527401677 _7_ MAC  --- 0 AODV 102 [13a 2 7 800] ------- [7:255 0:255 30 2] [0x4 1 [7 4] 10.000000] (REPLY)
s 0.527850258 _6_ RTR  --- 0 AODV 48 [0 ffffffff 5 800] ------- [6:255 -1:255 26 0] [0x2 5 1 [7 0] [0 4]] (REQUEST)
r 0.528218415 _2_ MAC  --- 0 AODV 44 [13a 2 7 800] ------- [7:255 0:255 30 2] [0x4 1 [7 4] 10.000000] (REPLY)
s 0.528228415 _2_ MAC  --- 0 ACK 38 [0 7 0 0] 
r 0.528243415 _2_ RTR  --- 0 AODV 44 [13a 2 7 800] ------- [7:255 0:255 30 2] [0x4 1 [7 4] 10.000000] (REPLY)
f 0.528243415 _2_ RTR  --- 0 AODV 44 [13a 2 7 800] ------- [7:255 0:255 29 1] [0x4 2 [7 4] 10.000000] (REPLY)
r 0.528533154 _7_ MAC  --- 0 ACK 38 [0 7 0 0] 
s 0.528642415 _2_ MAC  --- 0 ARP 86 [0 ffffffff 2 806] ------- [REQUEST 2/2 0/1]
r 0.529331031 _5_ MAC  --- 0 ARP 28 [0 ffffffff 2 806] ------- [REQUEST 2/2 0/1]
r 0.529331130 _4_ MAC  --- 0 ARP 28 [0 ffffffff 2 806] ------- [REQUEST 2/2 0/1]
r 0.529331154 _7_ MAC  --- 0 ARP 28 [0 ffffffff 2 806] ------- [REQUEST 2/2 0/1]
r 0.529331185 _1_ MAC  --- 0 ARP 28 [0 ffffffff 2 806] ------- [REQUEST 2/2 0/1]
s 0.529388673 _8_ RTR  --- 0 AODV 48 [0 ffffffff 5 800] ------- [8:255 -1:255 26 0] [0x2 5 1 [7 0] [0 4]] (REQUEST)
s 0.529626185 _1_ MAC  --- 0 RTS 44 [52e 2 1 0] 
r 0.529978956 _2_ MAC  --- 0 RTS 44 [52e 2 1 0] 
s 0.529988956 _2_ MAC  --- 0 CTS 38 [3f4 1 0 0] 
r 0.530293726 _1_ MAC  --- 0 CTS 38 [3f4 1 0 0] 
s 0.530303726 _1_ MAC  --- 0 ARP 86 [13a 2 1 806] ------- [REPLY 1/1 2/2]
r 0.530992497 _2_ MAC  --- 0 ARP 28 [13a 2 1 806] ------- [REPLY 1/1 2/2]
s 0.531002497 _2_ MAC  --- 0 ACK 38 [0 1 0 0] 
r 0.531307267 _1_ MAC  --- 0 ACK 38 [0 1 0 0] 
s 0.531636497 _2_ MAC  --- 0 RTS 44 [5ae 1 2 0] 
r 0.531989267 _1_ MAC  --- 0 RTS 44 [5ae 1 2 0] 
s 0.531999267 _1_ MAC  --- 0 CTS 38 [474 2 0 0] 
r 0.532304038 _2_ MAC  --- 0 CTS 38 [474 2 0 0] 
s 0.532314038 _2_ MAC  --- 0 AODV 102 [13a 1 2 800] ------- [7:255 0:255 29 1] [0x4 2 [7 4] 10.000000] (REPLY)
r 0.533130808 _1_ MAC  --- 0 AODV 44 [13a 1 2 800] ------- [7:255 0:255 29 1] [0x4 2 [7 4] 10.000000] (REPLY)
s 0.533140808 _1_ MAC  --- 0 ACK 38 [0 2 0 0] 
r 0.533155808 _1_ RTR  --- 0 AODV 44 [13a 1 2 800] ------- [7:255 0:255 29 1] [0x4 2 [7 4] 10.000000] (REPLY)
f 0.533155808 _1_ RTR  --- 0 AODV 44 [13a 1 2 800] ------- [7:255 0:255 28 0] [0x4 3 [7 4] 10.000000] (REPLY)
r 0.533445579 _2_ MAC  --- 0 ACK 38 [0 2 0 0] 
s 0.533940276 _6_ MAC  --- 0 AODV 106 [0 ffffffff 6 800] ------- [6:255 -1:255 26 0] [0x2 5 1 [7 0] [0 4]] (REQUEST)
r 0.534789003 _8_ MAC  --- 0 AODV 48 [0 ffffffff 6 800] ------- [6:255 -1:255 26 0] [0x2 5 1 [7 0] [0 4]] (REQUEST)
r 0.534789029 _5_ MAC  --- 0 AODV 48 [0 ffffffff 6 800] ------- [6:255 -1:255 26 0] [0x2 5 1 [7 0] [0 4]] (REQUEST)
r 0.534789099 _3_ MAC  --- 0 AODV 48 [0 ffffffff 6 800] ------- [6:255 -1:255 26 0] [0x2 5 1 [7 0] [0 4]] (REQUEST)
r 0.534814003 _8_ RTR  --- 0 AODV 48 [0 ffffffff 6 800] ------- [6:255 -1:255 26 0] [0x2 5 1 [7 0] [0 4]] (REQUEST)
r 0.534814029 _5_ RTR  --- 0 AODV 48 [0 ffffffff 6 800] ------- [6:255 -1:255 26 0] [0x2 5 1 [7 0] [0 4]] (REQUEST)
r 0.534814099 _3_ RTR  --- 0 AODV 48 [0 ffffffff 6 800] ------- [6:255 -1:255 26 0] [0x2 5 1 [7 0] [0 4]] (REQUEST)
s 0.535059003 _8_ MAC  --- 0 AODV 106 [0 ffffffff 8 800] ------- [8:255 -1:255 26 0] [0x2 5 1 [7 0] [0 4]] (REQUEST)
r 0.535907597 _9_ MAC  --- 0 AODV 48 [0 ffffffff 8 800] ------- [8:255 -1:255 26 0] [0x2 5 1 [7 0] [0 4]] (REQUEST)
r 0.535907659 _5_ MAC  --- 0 AODV 48 [0 ffffffff 8 800] ------- [8:255 -1:255 26 0] [0x2 5 1 [7 0] [0 4]] (REQUEST)
r 0.535907723 _7_ MAC  --- 0 AODV 48 [0 ffffffff 8 800] ------- [8:255 -1:255 26 0] [0x2 5 1 [7 0] [0 4]] (REQUEST)
r 0.535907731 _6_ MAC  --- 0 AODV 48 [0 ffffffff 8 800] ------- [8:255 -1:255 26 0] [0x2 5 1 [7 0] [0 4]] (REQUEST)
r 0.535932597 _9_ RTR  --- 0 AODV 48 [0 ffffffff 8 800] ------- [8:255 -1:255 26 0] [0x2 5 1 [7 0] [0 4]] (REQUEST)
r 0.535932659 _5_ RTR  --- 0 AODV 48 [0 ffffffff 8 800] ------- [8:255 -1:255 26 0] [0x2 5 1 [7 0] [0 4]] (REQUEST)
r 0.535932723 _7_ RTR  --- 0 AODV 48 [0 ffffffff 8 800] ------- [8:255 -1:255 26 0] [0x2 5 1 [7 0] [0 4]] (REQUEST)
r 0.535932731 _6_ RTR  --- 0 AODV 48 [0 ffffffff 8 800] ------- [8:255 -1:255 26 0] [0x2 5 1 [7 0] [0 4]] (REQUEST)
s 0.536362809 _1_ MAC  --- 0 ARP 86 [0 ffffffff 1 806] ------- [REQUEST 1/1 0/0]
r 0.537051379 _4_ MAC  --- 0 ARP 28 [0 ffffffff 1 806] ------- [REQUEST 1/1 0/0]
r 0.537051521 _0_ MAC  --- 0 ARP 28 [0 ffffffff 1 806] ------- [REQUEST 1/1 0/0]
r 0.537051580 _2_ MAC  --- 0 ARP 28 [0 ffffffff 1 806] ------- [REQUEST 1/1 0/0]
s 0.537226521 _0_ MAC  --- 0 RTS 44 [52e 1 0 0] 
r 0.537579233 _1_ MAC  --- 0 RTS 44 [52e 1 0 0] 
s 0.537589233 _1_ MAC  --- 0 CTS 38 [3f4 0 0 0] 
r 0.537893945 _0_ MAC  --- 0 CTS 38 [3f4 0 0 0] 
s 0.537903945 _0_ MAC  --- 0 ARP 86 [13a 1 0 806] ------- [REPLY 0/0 1/1]
r 0.538592657 _1_ MAC  --- 0 ARP 28 [13a 1 0 806] ------- [REPLY 0/0 1/1]
s 0.538602657 _1_ MAC  --- 0 ACK 38 [0 0 0 0] 
r 0.538907369 _0_ MAC  --- 0 ACK 38 [0 0 0 0] 
s 0.539296657 _1_ MAC  --- 0 RTS 44 [5ae 0 1 0] 
r 0.539649369 _0_ MAC  --- 0 RTS 44 [5ae 0 1 0] 
s 0.539659369 _0_ MAC  --- 0 CTS 38 [474 1 0 0] 
r 0.539964081 _1_ MAC  --- 0 CTS 38 [474 1 0 0] 
s 0.539974081 _1_ MAC  --- 0 AODV 102 [13a 0 1 800] ------- [7:255 0:255 28 0] [0x4 3 [7 4] 10.000000] (REPLY)
r 0.540790793 _0_ MAC  --- 0 AODV 44 [13a 0 1 800] ------- [7:255 0:255 28 0] [0x4 3 [7 4] 10.000000] (REPLY)
s 0.540800793 _0_ MAC  --- 0 ACK 38 [0 1 0 0] 
r 0.540815793 _0_ RTR  --- 0 AODV 44 [13a 0 1 800] ------- [7:255 0:255 28 0] [0x4 3 [7 4] 10.000000] (REPLY)
s 0.540815793 _0_ RTR  --- 0 cbr 1020 [0 0 0 0] ------- [0:0 7:0 30 1] [0] 0 0
s 0.540849814 _9_ RTR  --- 0 AODV 48 [0 ffffffff 8 800] ------- [9:255 -1:255 25 0] [0x2 6 1 [7 0] [0 4]] (REQUEST)
s 0.541004814 _9_ MAC  --- 0 AODV 106 [0 ffffffff 9 800] ------- [9:255 -1:255 25 0] [0x2 6 1 [7 0] [0 4]] (REQUEST)
r 0.541105505 _1_ MAC  --- 0 ACK 38 [0 1 0 0] 
s 0.541254793 _0_ MAC  --- 0 RTS 44 [242e 1 0 0] 
r 0.541607505 _1_ MAC  --- 0 RTS 44 [242e 1 0 0] 
s 0.541617505 _1_ MAC  --- 0 CTS 38 [22f4 0 0 0] 
r 0.541853407 _8_ MAC  --- 0 AODV 48 [0 ffffffff 9 800] ------- [9:255 -1:255 25 0] [0x2 6 1 [7 0] [0 4]] (REQUEST)
r 0.541853426 _7_ MAC  --- 0 AODV 48 [0 ffffffff 9 800] ------- [9:255 -1:255 25 0] [0x2 6 1 [7 0] [0 4]] (REQUEST)
r 0.541878407 _8_ RTR  --- 0 AODV 48 [0 ffffffff 9 800] ------- [9:255 -1:255 25 0] [0x2 6 1 [7 0] [0 4]] (REQUEST)
r 0.541878426 _7_ RTR  --- 0 AODV 48 [0 ffffffff 9 800] ------- [9:255 -1:255 25 0] [0x2 6 1 [7 0] [0 4]] (REQUEST)
r 0.541922217 _0_ MAC  --- 0 CTS 38 [22f4 0 0 0] 
s 0.541932217 _0_ MAC  --- 0 cbr 1078 [13a 1 0 800] ------- [0:0 7:0 30 1] [0] 0 0
s 0.550000000 _0_ AGT  --- 2 cbr 1000 [0 0 0 0] ------- [0:0 7:0 32 0] [1] 0 0
r 0.550000000 _0_ RTR  --- 2 cbr 1000 [0 0 0 0] ------- [0:0 7:0 32 0] [1] 0 0
s 0.550000000 _3_ AGT  --- 3 cbr 1000 [0 0 0 0] ------- [3:0 9:0 32 0] [1] 0 0
r 0.550000000 _3_ RTR  --- 3 cbr 1000 [0 0 0 0] ------- [3:0 9:0 32 0] [1] 0 0
s 0.550000000 _0_ RTR  --- 2 cbr 1020 [0 0 0 0] ------- [0:0 7:0 30 1] [1] 0 0
r 0.550556929 _1_ MAC  --- 0 cbr 1020 [13a 1 0 800] ------- [0:0 7:0 30 1] [0] 1 0
s 0.550566929 _1_ MAC  --- 0 ACK 38 [0 0 0 0] 
r 0.550581929 _1_ RTR  --- 0 cbr 1020 [13a 1 0 800] ------- [0:0 7:0 30 1] [0] 1 0
f 0.550581929 _1_ RTR  --- 0 cbr 1020 [13a 1 0 800] ------- [0:0 7:0 29 2] [0] 1 0
r 0.550871641 _0_ MAC  --- 0 ACK 38 [0 0 0 0] 
s 0.550981641 _0_ MAC  --- 0 RTS 44 [242e 1 0 0] 
r 0.551334353 _1_ MAC  --- 0 RTS 44 [242e 1 0 0] 
s 0.551344353 _1_ MAC  --- 0 CTS 38 [22f4 0 0 0] 
r 0.551649065 _0_ MAC  --- 0 CTS 38 [22f4 0 0 0] 
s 0.551659065 _0_ MAC  --- 2 cbr 1078 [13a 1 0 800] ------- [0:0 7:0 30 1] [1] 0 0
r 0.560283777 _1_ MAC  --- 2 cbr 1020 [13a 1 0 800] ------- [0:0 7:0 30 1] [1] 1 0
s 0.560293777 _1_ MAC  --- 0 ACK 38 [0 0 0 0] 
r 0.560308777 _1_ RTR  --- 2 cbr 1020 [13a 1 0 800] ------- [0:0 7:0 30 1] [1] 1 0
f 0.560308777 _1_ RTR  --- 2 cbr 1020 [13a 1 0 800] ------- [0:0 7:0 29 2] [1] 1 0
r 0.560598489 _0_ MAC  --- 0 ACK 38 [0 0 0 0] 
s 0.560767777 _1_ MAC  --- 0 RTS 44 [242e 2 1 0] 
r 0.561120547 _2_ MAC  --- 0 RTS 44 [242e 2 1 0] 
s 0.561130547 _2_ MAC  --- 0 CTS 38 [22f4 1 0 0] 
r 0.561435318 _1_ MAC  --- 0 CTS 38 [22f4 1 0 0] 
s 0.561445318 _1_ MAC  --- 0 cbr 1078 [13a 2 1 800] ------- [0:0 7:0 29 2] [0] 1 0
r 0.570070088 _2_ MAC  --- 0 cbr 1020 [13a 2 1 800] ------- [0:0 7:0 29 2] [0] 2 0
s 0.570080088 _2_ MAC  --- 0 ACK 38 [0 1 0 0] 
r 0.570095088 _2_ RTR  --- 0 cbr 1020 [13a 2 1 800] ------- [0:0 7:0 29 2] [0] 2 0
f 0.570095088 _2_ RTR  --- 0 cbr 1020 [13a 2 1 800] ------- [0:0 7:0 28 7] [0] 2 0
r 0.570384859 _1_ MAC  --- 0 ACK 38 [0 1 0 0] 
s 0.570554859 _1_ MAC  --- 0 RTS 44 [242e 2 1 0] 
r 0.570907629 _2_ MAC  --- 0 RTS 44 [242e 2 1 0] 
s 0.570917629 _2_ MAC  --- 0 CTS 38 [22f4 1 0 0] 
r 0.571222400 _1_ MAC  --- 0 CTS 38 [22f4 1 0 0] 
s 0.571232400 _1_ MAC  --- 2 cbr 1078 [13a 2 1 800] ------- [0:0 7:0 29 2] [1] 1 0
r 0.579857170 _2_ MAC  --- 2 cbr 1020 [13a 2 1 800] ------- [0:0 7:0 29 2] [1] 2 0
s 0.579867170 _2_ MAC  --- 0 ACK 38 [0 1 0 0] 
r 0.579882170 _2_ RTR  --- 2 cbr 1020 [13a 2 1 800] ------- [0:0 7:0 29 2] [1] 2 0
f 0.579882170 _2_ RTR  --- 2 cbr 1020 [13a 2 1 800] ------- [0:0 7:0 28 7] [1] 2 0
r 0.580171941 _1_ MAC  --- 0 ACK 38 [0 1 0 0] 
s 0.580701170 _2_ MAC  --- 0 RTS 44 [242e 7 2 0] 
r 0.581053909 _7_ MAC  --- 0 RTS 44 [242e 7 2 0] 
s 0.581063909 _7_ MAC  --- 0 CTS 38 [22f4 2 0 0] 
r 0.581368647 _2_ MAC  --- 0 CTS 38 [22f4 2 0 0] 
s 0.581378647 _2_ MAC  --- 0 cbr 1078 [13a 7 2 800] ------- [0:0 7:0 28 7] [0] 2 0
r 0.590003386 _7_ MAC  --- 0 cbr 1020 [13a 7 2 800] ------- [0:0 7:0 28 7] [0] 3 0
s 0.590013386 _7_ MAC  --- 0 ACK 38 [0 2 0 0] 