s 1.000000000 _0_ AGT  --- 0 cbr 1000 [0 0 0 0] ------- [0:0 9:0 32 0] [0] 0 0
r 1.000000000 _0_ RTR  --- 0 cbr 1000 [0 0 0 0] ------- [0:0 9:0 32 0] [0] 0 0
s 1.000000000 _14_ AGT  --- 1 cbr 1000 [0 0 0 0] ------- [14:0 10:0 32 0] [0] 0 0
r 1.000000000 _14_ RTR  --- 1 cbr 1000 [0 0 0 0] ------- [14:0 10:0 32 0] [0] 0 0
s 1.000000000 _0_ RTR  --- 0 AODV 48 [0 0 0 0] ------- [0:255 -1:255 30 0] [0x2 1 1 [9 0] [0 4]] (REQUEST)
s 1.000000000 _14_ RTR  --- 0 AODV 48 [0 0 0 0] ------- [14:255 -1:255 30 0] [0x2 1 1 [10 0] [14 4]] (REQUEST)
s 1.000115000 _14_ MAC  --- 0 AODV 106 [0 ffffffff e 800] ------- [14:255 -1:255 30 0] [0x2 1 1 [10 0] [14 4]] (REQUEST)
r 1.000963321 _18_ MAC  --- 0 AODV 48 [0 ffffffff e 800] ------- [14:255 -1:255 30 0] [0x2 1 1 [10 0] [14 4]] (REQUEST)
r 1.000963374 _19_ MAC  --- 0 AODV 48 [0 ffffffff e 800] ------- [14:255 -1:255 30 0] [0x2 1 1 [10 0] [14 4]] (REQUEST)
r 1.000963409 _15_ MAC  --- 0 AODV 48 [0 ffffffff e 800] ------- [14:255 -1:255 30 0] [0x2 1 1 [10 0] [14 4]] (REQUEST)
r 1.000963471 _16_ MAC  --- 0 AODV 48 [0 ffffffff e 800] ------- [14:255 -1:255 30 0] [0x2 1 1 [10 0] [14 4]] (REQUEST)
r 1.000963572 _5_ MAC  --- 0 AODV 48 [0 ffffffff e 800] ------- [14:255 -1:255 30 0] [0x2 1 1 [10 0] [14 4]] (REQUEST)
r 1.000963582 _13_ MAC  --- 0 AODV 48 [0 ffffffff e 800] ------- [14:255 -1:255 30 0] [0x2 1 1 [10 0] [14 4]] (REQUEST)
r 1.000963669 _17_ MAC  --- 0 AODV 48 [0 ffffffff e 800] ------- [14:255 -1:255 30 0] [0x2 1 1 [10 0] [14 4]] (REQUEST)
r 1.000963807 _4_ MAC  --- 0 AODV 48 [0 ffffffff e 800] ------- [14:255 -1:255 30 0] [0x2 1 1 [10 0] [14 4]] (REQUEST)
r 1.000988321 _18_ RTR  --- 0 AODV 48 [0 ffffffff e 800] ------- [14:255 -1:255 30 0] [0x2 1 1 [10 0] [14 4]] (REQUEST)
r 1.000988374 _19_ RTR  --- 0 AODV 48 [0 ffffffff e 800] ------- [14:255 -1:255 30 0] [0x2 1 1 [10 0] [14 4]] (REQUEST)
r 1.000988409 _15_ RTR  --- 0 AODV 48 [0 ffffffff e 800] ------- [14:255 -1:255 30 0] [0x2 1 1 [10 0] [14 4]] (REQUEST)
r 1.000988471 _16_ RTR  --- 0 AODV 48 [0 ffffffff e 800] ------- [14:255 -1:255 30 0] [0x2 1 1 [10 0] [14 4]] (REQUEST)
r 1.000988572 _5_ RTR  --- 0 AODV 48 [0 ffffffff e 800] ------- [14:255 -1:255 30 0] [0x2 1 1 [10 0] [14 4]] (REQUEST)
r 1.000988582 _13_ RTR  --- 0 AODV 48 [0 ffffffff e 800] ------- [14:255 -1:255 30 0] [0x2 1 1 [10 0] [14 4]] (REQUEST)
r 1.000988669 _17_ RTR  --- 0 AODV 48 [0 ffffffff e 800] ------- [14:255 -1:255 30 0] [0x2 1 1 [10 0] [14 4]] (REQUEST)
r 1.000988807 _4_ RTR  --- 0 AODV 48 [0 ffffffff e 800] ------- [14:255 -1:255 30 0] [0x2 1 1 [10 0] [14 4]] (REQUEST)
s 1.001798355 _0_ MAC  --- 0 AODV 106 [0 ffffffff 0 800] ------- [0:255 -1:255 30 0] [0x2 1 1 [9 0] [0 4]] (REQUEST)
s 1.001869548 _18_ RTR  --- 0 AODV 48 [0 ffffffff e 800] ------- [18:255 -1:255 29 0] [0x2 2 1 [10 0] [14 4]] (REQUEST)
r 1.002646890 _1_ MAC  --- 0 AODV 48 [0 ffffffff 0 800] ------- [0:255 -1:255 30 0] [0x2 1 1 [9 0] [0 4]] (REQUEST)
r 1.002647148 _2_ MAC  --- 0 AODV 48 [0 ffffffff 0 800] ------- [0:255 -1:255 30 0] [0x2 1 1 [9 0] [0 4]] (REQUEST)
r 1.002671890 _1_ RTR  --- 0 AODV 48 [0 ffffffff 0 800] ------- [0:255 -1:255 30 0] [0x2 1 1 [9 0] [0 4]] (REQUEST)
r 1.002672148 _2_ RTR  --- 0 AODV 48 [0 ffffffff 0 800] ------- [0:255 -1:255 30 0] [0x2 1 1 [9 0] [0 4]] (REQUEST)
s 1.003099836 _1_ RTR  --- 0 AODV 48 [0 ffffffff 0 800] ------- [1:255 -1:255 29 0] [0x2 2 1 [9 0] [0 4]] (REQUEST)
s 1.003301886 _18_ MAC  --- 0 AODV 106 [0 ffffffff 12 800] ------- [18:255 -1:255 29 0] [0x2 2 1 [10 0] [14 4]] (REQUEST)
s 1.003334600 _13_ RTR  --- 0 AODV 48 [0 ffffffff e 800] ------- [13:255 -1:255 29 0] [0x2 2 1 [10 0] [14 4]] (REQUEST)
s 1.004079597 _4_ RTR  --- 0 AODV 48 [0 ffffffff e 800] ------- [4:255 -1:255 29 0] [0x2 2 1 [10 0] [14 4]] (REQUEST)
s 1.004118089 _16_ RTR  --- 0 AODV 48 [0 ffffffff e 800] ------- [16:255 -1:255 29 0] [0x2 2 1 [10 0] [14 4]] (REQUEST)
r 1.004150207 _14_ MAC  --- 0 AODV 48 [0 ffffffff 12 800] ------- [18:255 -1:255 29 0] [0x2 2 1 [10 0] [14 4]] (REQUEST)
r 1.004150355 _15_ MAC  --- 0 AODV 48 [0 ffffffff 12 800] ------- [18:255 -1:255 29 0] [0x2 2 1 [10 0] [14 4]] (REQUEST)
r 1.004150423 _13_ MAC  --- 0 AODV 48 [0 ffffffff 12 800] ------- [18:255 -1:255 29 0] [0x2 2 1 [10 0] [14 4]] (REQUEST)
r 1.004150543 _16_ MAC  --- 0 AODV 48 [0 ffffffff 12 800] ------- [18:255 -1:255 29 0] [0x2 2 1 [10 0] [14 4]] (REQUEST)
r 1.004150573 _17_ MAC  --- 0 AODV 48 [0 ffffffff 12 800] ------- [18:255 -1:255 29 0] [0x2 2 1 [10 0] [14 4]] (REQUEST)
r 1.004150580 _19_ MAC  --- 0 AODV 48 [0 ffffffff 12 800] ------- [18:255 -1:255 29 0] [0x2 2 1 [10 0] [14 4]] (REQUEST)
r 1.004150696 _5_ MAC  --- 0 AODV 48 [0 ffffffff 12 800] ------- [18:255 -1:255 29 0] [0x2 2 1 [10 0] [14 4]] (REQUEST)
r 1.004175207 _14_ RTR  --- 0 AODV 48 [0 ffffffff 12 800] ------- [18:255 -1:255 29 0] [0x2 2 1 [10 0] [14 4]] (REQUEST)
r 1.004175355 _15_ RTR  --- 0 AODV 48 [0 ffffffff 12 800] ------- [18:255 -1:255 29 0] [0x2 2 1 [10 0] [14 4]] (REQUEST)
r 1.004175423 _13_ RTR  --- 0 AODV 48 [0 ffffffff 12 800] ------- [18:255 -1:255 29 0] [0x2 2 1 [10 0] [14 4]] (REQUEST)
r 1.004175543 _16_ RTR  --- 0 AODV 48 [0 ffffffff 12 800] ------- [18:255 -1:255 29 0] [0x2 2 1 [10 0] [14 4]] (REQUEST)
r 1.004175573 _17_ RTR  --- 0 AODV 48 [0 ffffffff 12 800] ------- [18:255 -1:255 29 0] [0x2 2 1 [10 0] [14 4]] (REQUEST)
r 1.004175580 _19_ RTR  --- 0 AODV 48 [0 ffffffff 12 800] ------- [18:255 -1:255 29 0] [0x2 2 1 [10 0] [14 4]] (REQUEST)
r 1.004175696 _5_ RTR  --- 0 AODV 48 [0 ffffffff 12 800] ------- [18:255 -1:255 29 0] [0x2 2 1 [10 0] [14 4]] (REQUEST)
s 1.004440423 _13_ MAC  --- 0 AODV 106 [0 ffffffff d 800] ------- [13:255 -1:255 29 0] [0x2 2 1 [10 0] [14 4]] (REQUEST)
r 1.005288961 _18_ MAC  --- 0 AODV 48 [0 ffffffff d 800] ------- [13:255 -1:255 29 0] [0x2 2 1 [10 0] [14 4]] (REQUEST)
r 1.005289006 _14_ MAC  --- 0 AODV 48 [0 ffffffff d 800] ------- [13:255 -1:255 29 0] [0x2 2 1 [10 0] [14 4]] (REQUEST)
r 1.005289017 _5_ MAC  --- 0 AODV 48 [0 ffffffff d 800] ------- [13:255 -1:255 29 0] [0x2 2 1 [10 0] [14 4]] (REQUEST)
r 1.005289022 _12_ MAC  --- 0 AODV 48 [0 ffffffff d 800] ------- [13:255 -1:255 29 0] [0x2 2 1 [10 0] [14 4]] (REQUEST)
r 1.005289247 _19_ MAC  --- 0 AODV 48 [0 ffffffff d 800] ------- [13:255 -1:255 29 0] [0x2 2 1 [10 0] [14 4]] (REQUEST)
r 1.005313961 _18_ RTR  --- 0 AODV 48 [0 ffffffff d 800] ------- [13:255 -1:255 29 0] [0x2 2 1 [10 0] [14 4]] (REQUEST)
r 1.005314006 _14_ RTR  --- 0 AODV 48 [0 ffffffff d 800] ------- [13:255 -1:255 29 0] [0x2 2 1 [10 0] [14 4]] (REQUEST)
r 1.005314017 _5_ RTR  --- 0 AODV 48 [0 ffffffff d 800] ------- [13:255 -1:255 29 0] [0x2 2 1 [10 0] [14 4]] (REQUEST)
r 1.005314022 _12_ RTR  --- 0 AODV 48 [0 ffffffff d 800] ------- [13:255 -1:255 29 0] [0x2 2 1 [10 0] [14 4]] (REQUEST)
r 1.005314247 _19_ RTR  --- 0 AODV 48 [0 ffffffff d 800] ------- [13:255 -1:255 29 0] [0x2 2 1 [10 0] [14 4]] (REQUEST)
s 1.005400107 _19_ RTR  --- 0 AODV 48 [0 ffffffff e 800] ------- [19:255 -1:255 29 0] [0x2 2 1 [10 0] [14 4]] (REQUEST)
s 1.005695107 _19_ MAC  --- 0 AODV 106 [0 ffffffff 13 800] ------- [19:255 -1:255 29 0] [0x2 2 1 [10 0] [14 4]] (REQUEST)
r 1.006543481 _14_ MAC  --- 0 AODV 48 [0 ffffffff 13 800] ------- [19:255 -1:255 29 0] [0x2 2 1 [10 0] [14 4]] (REQUEST)
r 1.006543541 _4_ MAC  --- 0 AODV 48 [0 ffffffff 13 800] ------- [19:255 -1:255 29 0] [0x2 2 1 [10 0] [14 4]] (REQUEST)
r 1.006543575 _16_ MAC  --- 0 AODV 48 [0 ffffffff 13 800] ------- [19:255 -1:255 29 0] [0x2 2 1 [10 0] [14 4]] (REQUEST)
r 1.006543582 _5_ MAC  --- 0 AODV 48 [0 ffffffff 13 800] ------- [19:255 -1:255 29 0] [0x2 2 1 [10 0] [14 4]] (REQUEST)
r 1.006543697 _15_ MAC  --- 0 AODV 48 [0 ffffffff 13 800] ------- [19:255 -1:255 29 0] [0x2 2 1 [10 0] [14 4]] (REQUEST)
r 1.006543772 _6_ MAC  --- 0 AODV 48 [0 ffffffff 13 800] ------- [19:255 -1:255 29 0] [0x2 2 1 [10 0] [14 4]] (REQUEST)
r 1.006543802 _18_ MAC  --- 0 AODV 48 [0 ffffffff 13 800] ------- [19:255 -1:255 29 0] [0x2 2 1 [10 0] [14 4]] (REQUEST)
r 1.006543914 _17_ MAC  --- 0 AODV 48 [0 ffffffff 13 800] ------- [19:255 -1:255 29 0] [0x2 2 1 [10 0] [14 4]] (REQUEST)
r 1.006543931 _13_ MAC  --- 0 AODV 48 [0 ffffffff 13 800] ------- [19:255 -1:255 29 0] [0x2 2 1 [10 0] [14 4]] (REQUEST)
r 1.006543935 _1_ MAC  --- 0 AODV 48 [0 ffffffff 13 800] ------- [19:255 -1:255 29 0] [0x2 2 1 [10 0] [14 4]] (REQUEST)
r 1.006568481 _14_ RTR  --- 0 AODV 48 [0 ffffffff 13 800] ------- [19:255 -1:255 29 0] [0x2 2 1 [10 0] [14 4]] (REQUEST)
r 1.006568541 _4_ RTR  --- 0 AODV 48 [0 ffffffff 13 800] ------- [19:255 -1:255 29 0] [0x2 2 1 [10 0] [14 4]] (REQUEST)
r 1.006568575 _16_ RTR  --- 0 AODV 48 [0 ffffffff 13 800] ------- [19:255 -1:255 29 0] [0x2 2 1 [10 0] [14 4]] (REQUEST)
r 1.006568582 _5_ RTR  --- 0 AODV 48 [0 ffffffff 13 800] ------- [19:255 -1:255 29 0] [0x2 2 1 [10 0] [14 4]] (REQUEST)
r 1.006568697 _15_ RTR  --- 0 AODV 48 [0 ffffffff 13 800] ------- [19:255 -1:255 29 0] [0x2 2 1 [10 0] [14 4]] (REQUEST)
r 1.006568772 _6_ RTR  --- 0 AODV 48 [0 ffffffff 13 800] ------- [19:255 -1:255 29 0] [0x2 2 1 [10 0] [14 4]] (REQUEST)
r 1.006568802 _18_ RTR  --- 0 AODV 48 [0 ffffffff 13 800] ------- [19:255 -1:255 29 0] [0x2 2 1 [10 0] [14 4]] (REQUEST)
r 1.006568914 _17_ RTR  --- 0 AODV 48 [0 ffffffff 13 800] ------- [19:255 -1:255 29 0] [0x2 2 1 [10 0] [14 4]] (REQUEST)
r 1.006568931 _13_ RTR  --- 0 AODV 48 [0 ffffffff 13 800] ------- [19:255 -1:255 29 0] [0x2 2 1 [10 0] [14 4]] (REQUEST)
r 1.006568935 _1_ RTR  --- 0 AODV 48 [0 ffffffff 13 800] ------- [19:255 -1:255 29 0] [0x2 2 1 [10 0] [14 4]] (REQUEST)
s 1.006753541 _4_ MAC  --- 0 AODV 106 [0 ffffffff 4 800] ------- [4:255 -1:255 29 0] [0x2 2 1 [10 0] [14 4]] (REQUEST)
s 1.007377321 _17_ RTR  --- 0 AODV 48 [0 ffffffff e 800] ------- [17:255 -1:255 29 0] [0x2 2 1 [10 0] [14 4]] (REQUEST)
r 1.007601855 _6_ MAC  --- 0 AODV 48 [0 ffffffff 4 800] ------- [4:255 -1:255 29 0] [0x2 2 1 [10 0] [14 4]] (REQUEST)
r 1.007601975 _19_ MAC  --- 0 AODV 48 [0 ffffffff 4 800] ------- [4:255 -1:255 29 0] [0x2 2 1 [10 0] [14 4]] (REQUEST)
r 1.007602045 _3_ MAC  --- 0 AODV 48 [0 ffffffff 4 800] ------- [4:255 -1:255 29 0] [0x2 2 1 [10 0] [14 4]] (REQUEST)
r 1.007602171 _1_ MAC  --- 0 AODV 48 [0 ffffffff 4 800] ------- [4:255 -1:255 29 0] [0x2 2 1 [10 0] [14 4]] (REQUEST)
r 1.007602241 _5_ MAC  --- 0 AODV 48 [0 ffffffff 4 800] ------- [4:255 -1:255 29 0] [0x2 2 1 [10 0] [14 4]] (REQUEST)
r 1.007602272 _16_ MAC  --- 0 AODV 48 [0 ffffffff 4 800] ------- [4:255 -1:255 29 0] [0x2 2 1 [10 0] [14 4]] (REQUEST)
r 1.007602348 _14_ MAC  --- 0 AODV 48 [0 ffffffff 4 800] ------- [4:255 -1:255 29 0] [0x2 2 1 [10 0] [14 4]] (REQUEST)
r 1.007602362 _2_ MAC  --- 0 AODV 48 [0 ffffffff 4 800] ------- [4:255 -1:255 29 0] [0x2 2 1 [10 0] [14 4]] (REQUEST)
r 1.007602365 _7_ MAC  --- 0 AODV 48 [0 ffffffff 4 800] ------- [4:255 -1:255 29 0] [0x2 2 1 [10 0] [14 4]] (REQUEST)
r 1.007626855 _6_ RTR  --- 0 AODV 48 [0 ffffffff 4 800] ------- [4:255 -1:255 29 0] [0x2 2 1 [10 0] [14 4]] (REQUEST)
r 1.007626975 _19_ RTR  --- 0 AODV 48 [0 ffffffff 4 800] ------- [4:255 -1:255 29 0] [0x2 2 1 [10 0] [14 4]] (REQUEST)
r 1.007627045 _3_ RTR  --- 0 AODV 48 [0 ffffffff 4 800] ------- [4:255 -1:255 29 0] [0x2 2 1 [10 0] [14 4]] (REQUEST)
r 1.007627171 _1_ RTR  --- 0 AODV 48 [0 ffffffff 4 800] ------- [4:255 -1:255 29 0] [0x2 2 1 [10 0] [14 4]] (REQUEST)
r 1.007627241 _5_ RTR  --- 0 AODV 48 [0 ffffffff 4 800] ------- [4:255 -1:255 29 0] [0x2 2 1 [10 0] [14 4]] (REQUEST)
r 1.007627272 _16_ RTR  --- 0 AODV 48 [0 ffffffff 4 800] ------- [4:255 -1:255 29 0] [0x2 2 1 [10 0] [14 4]] (REQUEST)
r 1.007627348 _14_ RTR  --- 0 AODV 48 [0 ffffffff 4 800] ------- [4:255 -1:255 29 0] [0x2 2 1 [10 0] [14 4]] (REQUEST)
r 1.007627362 _2_ RTR  --- 0 AODV 48 [0 ffffffff 4 800] ------- [4:255 -1:255 29 0] [0x2 2 1 [10 0] [14 4]] (REQUEST)
r 1.007627365 _7_ RTR  --- 0 AODV 48 [0 ffffffff 4 800] ------- [4:255 -1:255 29 0] [0x2 2 1 [10 0] [14 4]] (REQUEST)
s 1.007732171 _1_ MAC  --- 0 AODV 106 [0 ffffffff 1 800] ------- [1:255 -1:255 29 0] [0x2 2 1 [9 0] [0 4]] (REQUEST)
s 1.007732272 _16_ MAC  --- 0 AODV 106 [0 ffffffff 10 800] ------- [16:255 -1:255 29 0] [0x2 2 1 [10 0] [14 4]] (REQUEST)
D 1.007732998 _19_ MAC  COL 0 AODV 106 [0 ffffffff 10 800] ------- [16:255 -1:255 29 0] [0x2 2 1 [10 0] [14 4]] (REQUEST)
D 1.007733002 _4_ MAC  COL 0 AODV 106 [0 ffffffff 1 800] ------- [1:255 -1:255 29 0] [0x2 2 1 [9 0] [0 4]] (REQUEST)
D 1.007733161 _0_ MAC  COL 0 AODV 106 [0 ffffffff 1 800] ------- [1:255 -1:255 29 0] [0x2 2 1 [9 0] [0 4]] (REQUEST)
r 1.008580519 _15_ MAC  --- 0 AODV 48 [0 ffffffff 10 800] ------- [16:255 -1:255 29 0] [0x2 2 1 [10 0] [14 4]] (REQUEST)
r 1.008580617 _2_ MAC  --- 0 AODV 48 [0 ffffffff 1 800] ------- [1:255 -1:255 29 0] [0x2 2 1 [9 0] [0 4]] (REQUEST)
r 1.008580633 _17_ MAC  --- 0 AODV 48 [0 ffffffff 10 800] ------- [16:255 -1:255 29 0] [0x2 2 1 [10 0] [14 4]] (REQUEST)
r 1.008580743 _14_ MAC  --- 0 AODV 48 [0 ffffffff 10 800] ------- [16:255 -1:255 29 0] [0x2 2 1 [10 0] [14 4]] (REQUEST)
r 1.008580793 _3_ MAC  --- 0 AODV 48 [0 ffffffff 1 800] ------- [1:255 -1:255 29 0] [0x2 2 1 [9 0] [0 4]] (REQUEST)
r 1.008580929 _18_ MAC  --- 0 AODV 48 [0 ffffffff 10 800] ------- [16:255 -1:255 29 0] [0x2 2 1 [10 0] [14 4]] (REQUEST)
D 1.008580998 _19_ MAC  COL 0 AODV 106 [0 ffffffff 1 800] ------- [1:255 -1:255 29 0] [0x2 2 1 [9 0] [0 4]] (REQUEST)
D 1.008581002 _4_ MAC  COL 0 AODV 106 [0 ffffffff 10 800] ------- [16:255 -1:255 29 0] [0x2 2 1 [10 0] [14 4]] (REQUEST)
r 1.008605519 _15_ RTR  --- 0 AODV 48 [0 ffffffff 10 800] ------- [16:255 -1:255 29 0] [0x2 2 1 [10 0] [14 4]] (REQUEST)
r 1.008605617 _2_ RTR  --- 0 AODV 48 [0 ffffffff 1 800] ------- [1:255 -1:255 29 0] [0x2 2 1 [9 0] [0 4]] (REQUEST)
r 1.008605633 _17_ RTR  --- 0 AODV 48 [0 ffffffff 10 800] ------- [16:255 -1:255 29 0] [0x2 2 1 [10 0] [14 4]] (REQUEST)
r 1.008605743 _14_ RTR  --- 0 AODV 48 [0 ffffffff 10 800] ------- [16:255 -1:255 29 0] [0x2 2 1 [10 0] [14 4]] (REQUEST)
r 1.008605793 _3_ RTR  --- 0 AODV 48 [0 ffffffff 1 800] ------- [1:255 -1:255 29 0] [0x2 2 1 [9 0] [0 4]] (REQUEST)
r 1.008605929 _18_ RTR  --- 0 AODV 48 [0 ffffffff 10 800] ------- [16:255 -1:255 29 0] [0x2 2 1 [10 0] [14 4]] (REQUEST)
s 1.008801432 _12_ RTR  --- 0 AODV 48 [0 ffffffff d 800] ------- [12:255 -1:255 28 0] [0x2 3 1 [10 0] [14 4]] (REQUEST)
s 1.008979963 _15_ RTR  --- 0 AODV 48 [0 ffffffff e 800] ------- [15:255 -1:255 29 0] [0x2 2 1 [10 0] [14 4]] (REQUEST)
s 1.009072825 _2_ RTR  --- 0 AODV 48 [0 ffffffff 0 800] ------- [2:255 -1:255 29 0] [0x2 2 1 [9 0] [0 4]] (REQUEST)
s 1.009134963 _15_ MAC  --- 0 AODV 106 [0 ffffffff f 800] ------- [15:255 -1:255 29 0] [0x2 2 1 [10 0] [14 4]] (REQUEST)
s 1.009135769 _12_ MAC  --- 0 AODV 106 [0 ffffffff c 800] ------- [12:255 -1:255 28 0] [0x2 3 1 [10 0] [14 4]] (REQUEST)
s 1.009153333 _5_ RTR  --- 0 AODV 48 [0 ffffffff e 800] ------- [5:255 -1:255 29 0] [0x2 2 1 [10 0] [14 4]] (REQUEST)
s 1.009798956 _2_ RTR  --- 0 AODV 48 [0 ffffffff 4 800] ------- [2:255 -1:255 28 0] [0x2 3 1 [10 0] [14 4]] (REQUEST)
r 1.009983210 _16_ MAC  --- 0 AODV 48 [0 ffffffff f 800] ------- [15:255 -1:255 29 0] [0x2 2 1 [10 0] [14 4]] (REQUEST)
r 1.009983224 _17_ MAC  --- 0 AODV 48 [0 ffffffff f 800] ------- [15:255 -1:255 29 0] [0x2 2 1 [10 0] [14 4]] (REQUEST)
r 1.009983372 _14_ MAC  --- 0 AODV 48 [0 ffffffff f 800] ------- [15:255 -1:255 29 0] [0x2 2 1 [10 0] [14 4]] (REQUEST)
r 1.009983433 _18_ MAC  --- 0 AODV 48 [0 ffffffff f 800] ------- [15:255 -1:255 29 0] [0x2 2 1 [10 0] [14 4]] (REQUEST)
r 1.009983552 _19_ MAC  --- 0 AODV 48 [0 ffffffff f 800] ------- [15:255 -1:255 29 0] [0x2 2 1 [10 0] [14 4]] (REQUEST)
r 1.009984326 _10_ MAC  --- 0 AODV 48 [0 ffffffff c 800] ------- [12:255 -1:255 28 0] [0x2 3 1 [10 0] [14 4]] (REQUEST)
D 1.009984368 _13_ MAC  COL 0 AODV 106 [0 ffffffff c 800] ------- [12:255 -1:255 28 0] [0x2 3 1 [10 0] [14 4]] (REQUEST)
D 1.009984438 _5_ MAC  COL 0 AODV 106 [0 ffffffff c 800] ------- [12:255 -1:255 28 0] [0x2 3 1 [10 0] [14 4]] (REQUEST)
D 1.009984559 _8_ MAC  COL 0 AODV 106 [0 ffffffff c 800] ------- [12:255 -1:255 28 0] [0x2 3 1 [10 0] [14 4]] (REQUEST)
r 1.010008210 _16_ RTR  --- 0 AODV 48 [0 ffffffff f 800] ------- [15:255 -1:255 29 0] [0x2 2 1 [10 0] [14 4]] (REQUEST)
r 1.010008224 _17_ RTR  --- 0 AODV 48 [0 ffffffff f 800] ------- [15:255 -1:255 29 0] [0x2 2 1 [10 0] [14 4]] (REQUEST)
r 1.010008372 _14_ RTR  --- 0 AODV 48 [0 ffffffff f 800] ------- [15:255 -1:255 29 0] [0x2 2 1 [10 0] [14 4]] (REQUEST)
r 1.010008433 _18_ RTR  --- 0 AODV 48 [0 ffffffff f 800] ------- [15:255 -1:255 29 0] [0x2 2 1 [10 0] [14 4]] (REQUEST)
r 1.010008552 _19_ RTR  --- 0 AODV 48 [0 ffffffff f 800] ------- [15:255 -1:255 29 0] [0x2 2 1 [10 0] [14 4]] (REQUEST)
r 1.010009326 _10_ RTR  --- 0 AODV 48 [0 ffffffff c 800] ------- [12:255 -1:255 28 0] [0x2 3 1 [10 0] [14 4]] (REQUEST)
s 1.010009326 _10_ RTR  --- 0 AODV 44 [0 0 0 0] ------- [10:255 14:255 30 12] [0x4 1 [10 4] 10.000000] (REPLY)
s 1.010039621 _7_ RTR  --- 0 AODV 48 [0 ffffffff 4 800] ------- [7:255 -1:255 28 0] [0x2 3 1 [10 0] [14 4]] (REQUEST)
s 1.010439489 _17_ MAC  --- 0 AODV 106 [0 ffffffff 11 800] ------- [17:255 -1:255 29 0] [0x2 2 1 [10 0] [14 4]] (REQUEST)
s 1.010599315 _7_ MAC  --- 0 AODV 106 [0 ffffffff 7 800] ------- [7:255 -1:255 28 0] [0x2 3 1 [10 0] [14 4]] (REQUEST)
D 1.010600487 _19_ MAC  COL 0 AODV 106 [0 ffffffff 11 800] ------- [17:255 -1:255 29 0] [0x2 2 1 [10 0] [14 4]] (REQUEST)
s 1.011230094 _1_ RTR  --- 0 AODV 48 [0 ffffffff 13 800] ------- [1:255 -1:255 28 0] [0x2 3 1 [10 0] [14 4]] (REQUEST)
r 1.011287750 _15_ MAC  --- 0 AODV 48 [0 ffffffff 11 800] ------- [17:255 -1:255 29 0] [0x2 2 1 [10 0] [14 4]] (REQUEST)
r 1.011287850 _16_ MAC  --- 0 AODV 48 [0 ffffffff 11 800] ------- [17:255 -1:255 29 0] [0x2 2 1 [10 0] [14 4]] (REQUEST)
r 1.011288159 _14_ MAC  --- 0 AODV 48 [0 ffffffff 11 800] ------- [17:255 -1:255 29 0] [0x2 2 1 [10 0] [14 4]] (REQUEST)
r 1.011288177 _18_ MAC  --- 0 AODV 48 [0 ffffffff 11 800] ------- [17:255 -1:255 29 0] [0x2 2 1 [10 0] [14 4]] (REQUEST)
r 1.011312750 _15_ RTR  --- 0 AODV 48 [0 ffffffff 11 800] ------- [17:255 -1:255 29 0] [0x2 2 1 [10 0] [14 4]] (REQUEST)
r 1.011312850 _16_ RTR  --- 0 AODV 48 [0 ffffffff 11 800] ------- [17:255 -1:255 29 0] [0x2 2 1 [10 0] [14 4]] (REQUEST)
r 1.011313159 _14_ RTR  --- 0 AODV 48 [0 ffffffff 11 800] ------- [17:255 -1:255 29 0] [0x2 2 1 [10 0] [14 4]] (REQUEST)
r 1.011313177 _18_ RTR  --- 0 AODV 48 [0 ffffffff 11 800] ------- [17:255 -1:255 29 0] [0x2 2 1 [10 0] [14 4]] (REQUEST)
D 1.011447833 _6_ MAC  COL 0 AODV 106 [0 ffffffff 7 800] ------- [7:255 -1:255 28 0] [0x2 3 1 [10 0] [14 4]] (REQUEST)
r 1.011447901 _9_ MAC  --- 0 AODV 48 [0 ffffffff 7 800] ------- [7:255 -1:255 28 0] [0x2 3 1 [10 0] [14 4]] (REQUEST)
D 1.011448023 _3_ MAC  COL 0 AODV 106 [0 ffffffff 7 800] ------- [7:255 -1:255 28 0] [0x2 3 1 [10 0] [14 4]] (REQUEST)
D 1.011448080 _8_ MAC  COL 0 AODV 106 [0 ffffffff 7 800] ------- [7:255 -1:255 28 0] [0x2 3 1 [10 0] [14 4]] (REQUEST)
D 1.011448138 _4_ MAC  COL 0 AODV 106 [0 ffffffff 7 800] ------- [7:255 -1:255 28 0] [0x2 3 1 [10 0] [14 4]] (REQUEST)
r 1.011472901 _9_ RTR  --- 0 AODV 48 [0 ffffffff 7 800] ------- [7:255 -1:255 28 0] [0x2 3 1 [10 0] [14 4]] (REQUEST)
s 1.011755260 _6_ RTR  --- 0 AODV 48 [0 ffffffff 13 800] ------- [6:255 -1:255 28 0] [0x2 3 1 [10 0] [14 4]] (REQUEST)
s 1.011882585 _10_ MAC  --- 0 ARP 86 [0 ffffffff a 806] ------- [REQUEST 10/10 0/12]
s 1.012102494 _2_ MAC  --- 0 AODV 106 [0 ffffffff 2 800] ------- [2:255 -1:255 29 0] [0x2 2 1 [9 0] [0 4]] (REQUEST)
r 1.012570918 _11_ MAC  --- 0 ARP 28 [0 ffffffff a 806] ------- [REQUEST 10/10 0/12]
r 1.012571141 _8_ MAC  --- 0 ARP 28 [0 ffffffff a 806] ------- [REQUEST 10/10 0/12]
r 1.012571142 _12_ MAC  --- 0 ARP 28 [0 ffffffff a 806] ------- [REQUEST 10/10 0/12]
r 1.012950941 _1_ MAC  --- 0 AODV 48 [0 ffffffff 2 800] ------- [2:255 -1:255 29 0] [0x2 2 1 [9 0] [0 4]] (REQUEST)
D 1.012950977 _3_ MAC  COL 0 AODV 106 [0 ffffffff 2 800] ------- [2:255 -1:255 29 0] [0x2 2 1 [9 0] [0 4]] (REQUEST)
r 1.012951286 _0_ MAC  --- 0 AODV 48 [0 ffffffff 2 800] ------- [2:255 -1:255 29 0] [0x2 2 1 [9 0] [0 4]] (REQUEST)
D 1.012951314 _4_ MAC  COL 0 AODV 106 [0 ffffffff 2 800] ------- [2:255 -1:255 29 0] [0x2 2 1 [9 0] [0 4]] (REQUEST)
r 1.012975941 _1_ RTR  --- 0 AODV 48 [0 ffffffff 2 800] ------- [2:255 -1:255 29 0] [0x2 2 1 [9 0] [0 4]] (REQUEST)
r 1.012976286 _0_ RTR  --- 0 AODV 48 [0 ffffffff 2 800] ------- [2:255 -1:255 29 0] [0x2 2 1 [9 0] [0 4]] (REQUEST)
s 1.013081142 _12_ MAC  --- 0 RTS 44 [52e a c 0] 
s 1.013180494 _2_ MAC  --- 0 AODV 106 [0 ffffffff 2 800] ------- [2:255 -1:255 28 0] [0x2 3 1 [10 0] [14 4]] (REQUEST)
r 1.013433699 _10_ MAC  --- 0 RTS 44 [52e a c 0] 
s 1.013443699 _10_ MAC  --- 0 CTS 38 [3f4 c 0 0] 
r 1.013748256 _12_ MAC  --- 0 CTS 38 [3f4 c 0 0] 
s 1.013758256 _12_ MAC  --- 0 ARP 86 [13a a c 806] ------- [REPLY 12/12 10/10]
D 1.013759614 _4_ MAC  COL 0 AODV 106 [0 ffffffff 2 800] ------- [2:255 -1:255 28 0] [0x2 3 1 [10 0] [14 4]] (REQUEST)
r 1.014028941 _1_ MAC  --- 0 AODV 48 [0 ffffffff 2 800] ------- [2:255 -1:255 28 0] [0x2 3 1 [10 0] [14 4]] (REQUEST)
D 1.014028977 _3_ MAC  COL 0 AODV 106 [0 ffffffff 2 800] ------- [2:255 -1:255 28 0] [0x2 3 1 [10 0] [14 4]] (REQUEST)
r 1.014029286 _0_ MAC  --- 0 AODV 48 [0 ffffffff 2 800] ------- [2:255 -1:255 28 0] [0x2 3 1 [10 0] [14 4]] (REQUEST)
r 1.014053941 _1_ RTR  --- 0 AODV 48 [0 ffffffff 2 800] ------- [2:255 -1:255 28 0] [0x2 3 1 [10 0] [14 4]] (REQUEST)
r 1.014054286 _0_ RTR  --- 0 AODV 48 [0 ffffffff 2 800] ------- [2:255 -1:255 28 0] [0x2 3 1 [10 0] [14 4]] (REQUEST)
s 1.014258941 _1_ MAC  --- 0 AODV 106 [0 ffffffff 1 800] ------- [1:255 -1:255 28 0] [0x2 3 1 [10 0] [14 4]] (REQUEST)
r 1.014446812 _10_ MAC  --- 0 ARP 28 [13a a c 806] ------- [REPLY 12/12 10/10]
s 1.014456812 _10_ MAC  --- 0 ACK 38 [0 c 0 0] 
r 1.014761369 _12_ MAC  --- 0 ACK 38 [0 c 0 0] 
s 1.014810812 _10_ MAC  --- 0 RTS 44 [5ae c a 0] 
D 1.014812147 _19_ MAC  COL 0 AODV 106 [0 ffffffff 1 800] ------- [1:255 -1:255 28 0] [0x2 3 1 [10 0] [14 4]] (REQUEST)
r 1.015107387 _2_ MAC  --- 0 AODV 48 [0 ffffffff 1 800] ------- [1:255 -1:255 28 0] [0x2 3 1 [10 0] [14 4]] (REQUEST)
r 1.015107475 _0_ MAC  --- 0 AODV 48 [0 ffffffff 1 800] ------- [1:255 -1:255 28 0] [0x2 3 1 [10 0] [14 4]] (REQUEST)
r 1.015107563 _3_ MAC  --- 0 AODV 48 [0 ffffffff 1 800] ------- [1:255 -1:255 28 0] [0x2 3 1 [10 0] [14 4]] (REQUEST)
D 1.015107570 _4_ MAC  COL 0 AODV 106 [0 ffffffff 1 800] ------- [1:255 -1:255 28 0] [0x2 3 1 [10 0] [14 4]] (REQUEST)
D 1.015107658 _16_ MAC  COL 0 AODV 106 [0 ffffffff 1 800] ------- [1:255 -1:255 28 0] [0x2 3 1 [10 0] [14 4]] (REQUEST)
r 1.015132387 _2_ RTR  --- 0 AODV 48 [0 ffffffff 1 800] ------- [1:255 -1:255 28 0] [0x2 3 1 [10 0] [14 4]] (REQUEST)
r 1.015132475 _0_ RTR  --- 0 AODV 48 [0 ffffffff 1 800] ------- [1:255 -1:255 28 0] [0x2 3 1 [10 0] [14 4]] (REQUEST)
r 1.015132563 _3_ RTR  --- 0 AODV 48 [0 ffffffff 1 800] ------- [1:255 -1:255 28 0] [0x2 3 1 [10 0] [14 4]] (REQUEST)
r 1.015163369 _12_ MAC  --- 0 RTS 44 [5ae c a 0] 
s 1.015173369 _12_ MAC  --- 0 CTS 38 [474 a 0 0] 
r 1.015477926 _10_ MAC  --- 0 CTS 38 [474 a 0 0] 
s 1.015487926 _10_ MAC  --- 0 AODV 102 [13a c a 800] ------- [10:255 14:255 30 12] [0x4 1 [10 4] 10.000000] (REPLY)
s 1.016025297 _3_ RTR  --- 0 AODV 48 [0 ffffffff 4 800] ------- [3:255 -1:255 28 0] [0x2 3 1 [10 0] [14 4]] (REQUEST)
s 1.016228112 _3_ RTR  --- 0 AODV 48 [0 ffffffff 1 800] ------- [3:255 -1:255 28 0] [0x2 3 1 [9 0] [0 4]] (REQUEST)
r 1.016304483 _12_ MAC  --- 0 AODV 44 [13a c a 800] ------- [10:255 14:255 30 12] [0x4 1 [10 4] 10.000000] (REPLY)
s 1.016314483 _12_ MAC  --- 0 ACK 38 [0 a 0 0] 
r 1.016329483 _12_ RTR  --- 0 AODV 44 [13a c a 800] ------- [10:255 14:255 30 12] [0x4 1 [10 4] 10.000000] (REPLY)
f 1.016329483 _12_ RTR  --- 0 AODV 44 [13a c a 800] ------- [10:255 14:255 29 13] [0x4 2 [10 4] 10.000000] (REPLY)
r 1.016619040 _10_ MAC  --- 0 ACK 38 [0 a 0 0] 
s 1.016858798 _5_ MAC  --- 0 AODV 106 [0 ffffffff 5 800] ------- [5:255 -1:255 29 0] [0x2 2 1 [10 0] [14 4]] (REQUEST)
s 1.017423174 _9_ RTR  --- 0 AODV 48 [0 ffffffff 7 800] ------- [9:255 -1:255 27 0] [0x2 4 1 [10 0] [14 4]] (REQUEST)
r 1.017707273 _19_ MAC  --- 0 AODV 48 [0 ffffffff 5 800] ------- [5:255 -1:255 29 0] [0x2 2 1 [10 0] [14 4]] (REQUEST)
r 1.017707371 _14_ MAC  --- 0 AODV 48 [0 ffffffff 5 800] ------- [5:255 -1:255 29 0] [0x2 2 1 [10 0] [14 4]] (REQUEST)
r 1.017707374 _8_ MAC  --- 0 AODV 48 [0 ffffffff 5 800] ------- [5:255 -1:255 29 0] [0x2 2 1 [10 0] [14 4]] (REQUEST)
r 1.017707392 _13_ MAC  --- 0 AODV 48 [0 ffffffff 5 800] ------- [5:255 -1:255 29 0] [0x2 2 1 [10 0] [14 4]] (REQUEST)
r 1.017707467 _12_ MAC  --- 0 AODV 48 [0 ffffffff 5 800] ------- [5:255 -1:255 29 0] [0x2 2 1 [10 0] [14 4]] (REQUEST)
r 1.017707498 _4_ MAC  --- 0 AODV 48 [0 ffffffff 5 800] ------- [5:255 -1:255 29 0] [0x2 2 1 [10 0] [14 4]] (REQUEST)
r 1.017707529 _6_ MAC  --- 0 AODV 48 [0 ffffffff 5 800] ------- [5:255 -1:255 29 0] [0x2 2 1 [10 0] [14 4]] (REQUEST)
r 1.017707608 _18_ MAC  --- 0 AODV 48 [0 ffffffff 5 800] ------- [5:255 -1:255 29 0] [0x2 2 1 [10 0] [14 4]] (REQUEST)
r 1.017732273 _19_ RTR  --- 0 AODV 48 [0 ffffffff 5 800] ------- [5:255 -1:255 29 0] [0x2 2 1 [10 0] [14 4]] (REQUEST)
r 1.017732371 _14_ RTR  --- 0 AODV 48 [0 ffffffff 5 800] ------- [5:255 -1:255 29 0] [0x2 2 1 [10 0] [14 4]] (REQUEST)
r 1.017732374 _8_ RTR  --- 0 AODV 48 [0 ffffffff 5 800] ------- [5:255 -1:255 29 0] [0x2 2 1 [10 0] [14 4]] (REQUEST)
r 1.017732392 _13_ RTR  --- 0 AODV 48 [0 ffffffff 5 800] ------- [5:255 -1:255 29 0] [0x2 2 1 [10 0] [14 4]] (REQUEST)
r 1.017732467 _12_ RTR  --- 0 AODV 48 [0 ffffffff 5 800] ------- [5:255 -1:255 29 0] [0x2 2 1 [10 0] [14 4]] (REQUEST)
r 1.017732498 _4_ RTR  --- 0 AODV 48 [0 ffffffff 5 800] ------- [5:255 -1:255 29 0] [0x2 2 1 [10 0] [14 4]] (REQUEST)
r 1.017732529 _6_ RTR  --- 0 AODV 48 [0 ffffffff 5 800] ------- [5:255 -1:255 29 0] [0x2 2 1 [10 0] [14 4]] (REQUEST)
r 1.017732608 _18_ RTR  --- 0 AODV 48 [0 ffffffff 5 800] ------- [5:255 -1:255 29 0] [0x2 2 1 [10 0] [14 4]] (REQUEST)
s 1.017797467 _12_ MAC  --- 0 ARP 86 [0 ffffffff c 806] ------- [REQUEST 12/12 0/13]
r 1.018486024 _10_ MAC  --- 0 ARP 28 [0 ffffffff c 806] ------- [REQUEST 12/12 0/13]
r 1.018486066 _13_ MAC  --- 0 ARP 28 [0 ffffffff c 806] ------- [REQUEST 12/12 0/13]
r 1.018486136 _5_ MAC  --- 0 ARP 28 [0 ffffffff c 806] ------- [REQUEST 12/12 0/13]
r 1.018486257 _8_ MAC  --- 0 ARP 28 [0 ffffffff c 806] ------- [REQUEST 12/12 0/13]
s 1.018841066 _13_ MAC  --- 0 RTS 44 [52e c d 0] 
r 1.019193664 _12_ MAC  --- 0 RTS 44 [52e c d 0] 
s 1.019203664 _12_ MAC  --- 0 CTS 38 [3f4 d 0 0] 
r 1.019508262 _13_ MAC  --- 0 CTS 38 [3f4 d 0 0] 
s 1.019518262 _13_ MAC  --- 0 ARP 86 [13a c d 806] ------- [REPLY 13/13 12/12]
s 1.019594516 _8_ RTR  --- 0 AODV 48 [0 ffffffff 5 800] ------- [8:255 -1:255 28 0] [0x2 3 1 [10 0] [14 4]] (REQUEST)
r 1.020206861 _12_ MAC  --- 0 ARP 28 [13a c d 806] ------- [REPLY 13/13 12/12]
s 1.020216861 _12_ MAC  --- 0 ACK 38 [0 d 0 0] 
r 1.020521459 _13_ MAC  --- 0 ACK 38 [0 d 0 0] 
s 1.020590861 _12_ MAC  --- 0 RTS 44 [5ae d c 0] 
r 1.020943459 _13_ MAC  --- 0 RTS 44 [5ae d c 0] 
s 1.020953459 _13_ MAC  --- 0 CTS 38 [474 c 0 0] 
s 1.021041019 _0_ RTR  --- 0 AODV 48 [0 ffffffff 2 800] ------- [0:255 -1:255 27 0] [0x2 4 1 [10 0] [14 4]] (REQUEST)
r 1.021258057 _12_ MAC  --- 0 CTS 38 [474 c 0 0] 
s 1.021268057 _12_ MAC  --- 0 AODV 102 [13a d c 800] ------- [10:255 14:255 29 13] [0x4 2 [10 4] 10.000000] (REPLY)
s 1.021356019 _0_ MAC  --- 0 AODV 106 [0 ffffffff 0 800] ------- [0:255 -1:255 27 0] [0x2 4 1 [10 0] [14 4]] (REQUEST)
r 1.022084656 _13_ MAC  --- 0 AODV 44 [13a d c 800] ------- [10:255 14:255 29 13] [0x4 2 [10 4] 10.000000] (REPLY)
s 1.022094656 _13_ MAC  --- 0 ACK 38 [0 c 0 0] 
r 1.022109656 _13_ RTR  --- 0 AODV 44 [13a d c 800] ------- [10:255 14:255 29 13] [0x4 2 [10 4] 10.000000] (REPLY)
f 1.022109656 _13_ RTR  --- 0 AODV 44 [13a d c 800] ------- [10:255 14:255 28 14] [0x4 3 [10 4] 10.000000] (REPLY)
r 1.022204553 _1_ MAC  --- 0 AODV 48 [0 ffffffff 0 800] ------- [0:255 -1:255 27 0] [0x2 4 1 [10 0] [14 4]] (REQUEST)
r 1.022204811 _2_ MAC  --- 0 AODV 48 [0 ffffffff 0 800] ------- [0:255 -1:255 27 0] [0x2 4 1 [10 0] [14 4]] (REQUEST)
r 1.022229553 _1_ RTR  --- 0 AODV 48 [0 ffffffff 0 800] ------- [0:255 -1:255 27 0] [0x2 4 1 [10 0] [14 4]] (REQUEST)
r 1.022229811 _2_ RTR  --- 0 AODV 48 [0 ffffffff 0 800] ------- [0:255 -1:255 27 0] [0x2 4 1 [10 0] [14 4]] (REQUEST)
r 1.022399254 _12_ MAC  --- 0 ACK 38 [0 c 0 0] 
s 1.022894354 _9_ MAC  --- 0 AODV 106 [0 ffffffff 9 800] ------- [9:255 -1:255 27 0] [0x2 4 1 [10 0] [14 4]] (REQUEST)
r 1.023742936 _11_ MAC  --- 0 AODV 48 [0 ffffffff 9 800] ------- [9:255 -1:255 27 0] [0x2 4 1 [10 0] [14 4]] (REQUEST)
r 1.023742940 _7_ MAC  --- 0 AODV 48 [0 ffffffff 9 800] ------- [9:255 -1:255 27 0] [0x2 4 1 [10 0] [14 4]] (REQUEST)
r 1.023742974 _8_ MAC  --- 0 AODV 48 [0 ffffffff 9 800] ------- [9:255 -1:255 27 0] [0x2 4 1 [10 0] [14 4]] (REQUEST)
r 1.023767936 _11_ RTR  --- 0 AODV 48 [0 ffffffff 9 800] ------- [9:255 -1:255 27 0] [0x2 4 1 [10 0] [14 4]] (REQUEST)
r 1.023767940 _7_ RTR  --- 0 AODV 48 [0 ffffffff 9 800] ------- [9:255 -1:255 27 0] [0x2 4 1 [10 0] [14 4]] (REQUEST)
r 1.023767974 _8_ RTR  --- 0 AODV 48 [0 ffffffff 9 800] ------- [9:255 -1:255 27 0] [0x2 4 1 [10 0] [14 4]] (REQUEST)
s 1.023992974 _8_ MAC  --- 0 AODV 106 [0 ffffffff 8 800] ------- [8:255 -1:255 28 0] [0x2 3 1 [10 0] [14 4]] (REQUEST)
s 1.024269270 _11_ RTR  --- 0 AODV 48 [0 ffffffff 9 800] ------- [11:255 -1:255 26 0] [0x2 5 1 [10 0] [14 4]] (REQUEST)
r 1.024841452 _11_ MAC  --- 0 AODV 48 [0 ffffffff 8 800] ------- [8:255 -1:255 28 0] [0x2 3 1 [10 0] [14 4]] (REQUEST)
r 1.024841529 _10_ MAC  --- 0 AODV 48 [0 ffffffff 8 800] ------- [8:255 -1:255 28 0] [0x2 3 1 [10 0] [14 4]] (REQUEST)
r 1.024841549 _5_ MAC  --- 0 AODV 48 [0 ffffffff 8 800] ------- [8:255 -1:255 28 0] [0x2 3 1 [10 0] [14 4]] (REQUEST)