s 1.000000000 _0_ AGT  --- 0 cbr 1000 [0 0 0 0] ------- [0:0 6:0 32 0] [0] 0 0
r 1.000000000 _0_ RTR  --- 0 cbr 1000 [0 0 0 0] ------- [0:0 6:0 32 0] [0] 0 0
s 1.000000000 _14_ AGT  --- 1 cbr 1000 [0 0 0 0] ------- [14:0 15:0 32 0] [0] 0 0
r 1.000000000 _14_ RTR  --- 1 cbr 1000 [0 0 0 0] ------- [14:0 15:0 32 0] [0] 0 0
s 1.000000000 _0_ RTR  --- 0 AODV 48 [0 0 0 0] ------- [0:255 -1:255 30 0] [0x2 1 1 [6 0] [0 4]] (REQUEST)
s 1.000000000 _14_ RTR  --- 0 AODV 48 [0 0 0 0] ------- [14:255 -1:255 30 0] [0x2 1 1 [15 0] [14 4]] (REQUEST)
s 1.000115000 _14_ MAC  --- 0 AODV 106 [0 ffffffff e 800] ------- [14:255 -1:255 30 0] [0x2 1 1 [15 0] [14 4]] (REQUEST)
r 1.000963332 _13_ MAC  --- 0 AODV 48 [0 ffffffff e 800] ------- [14:255 -1:255 30 0] [0x2 1 1 [15 0] [14 4]] (REQUEST)
r 1.000963380 _10_ MAC  --- 0 AODV 48 [0 ffffffff e 800] ------- [14:255 -1:255 30 0] [0x2 1 1 [15 0] [14 4]] (REQUEST)
r 1.000963426 _9_ MAC  --- 0 AODV 48 [0 ffffffff e 800] ------- [14:255 -1:255 30 0] [0x2 1 1 [15 0] [14 4]] (REQUEST)
r 1.000963620 _11_ MAC  --- 0 AODV 48 [0 ffffffff e 800] ------- [14:255 -1:255 30 0] [0x2 1 1 [15 0] [14 4]] (REQUEST)
r 1.000963677 _8_ MAC  --- 0 AODV 48 [0 ffffffff e 800] ------- [14:255 -1:255 30 0] [0x2 1 1 [15 0] [14 4]] (REQUEST)
r 1.000963795 _12_ MAC  --- 0 AODV 48 [0 ffffffff e 800] ------- [14:255 -1:255 30 0] [0x2 1 1 [15 0] [14 4]] (REQUEST)
r 1.000988332 _13_ RTR  --- 0 AODV 48 [0 ffffffff e 800] ------- [14:255 -1:255 30 0] [0x2 1 1 [15 0] [14 4]] (REQUEST)
r 1.000988380 _10_ RTR  --- 0 AODV 48 [0 ffffffff e 800] ------- [14:255 -1:255 30 0] [0x2 1 1 [15 0] [14 4]] (REQUEST)
r 1.000988426 _9_ RTR  --- 0 AODV 48 [0 ffffffff e 800] ------- [14:255 -1:255 30 0] [0x2 1 1 [15 0] [14 4]] (REQUEST)
r 1.000988620 _11_ RTR  --- 0 AODV 48 [0 ffffffff e 800] ------- [14:255 -1:255 30 0] [0x2 1 1 [15 0] [14 4]] (REQUEST)
r 1.000988677 _8_ RTR  --- 0 AODV 48 [0 ffffffff e 800] ------- [14:255 -1:255 30 0] [0x2 1 1 [15 0] [14 4]] (REQUEST)
r 1.000988795 _12_ RTR  --- 0 AODV 48 [0 ffffffff e 800] ------- [14:255 -1:255 30 0] [0x2 1 1 [15 0] [14 4]] (REQUEST)
s 1.001797839 _0_ MAC  --- 0 AODV 106 [0 ffffffff 0 800] ------- [0:255 -1:255 30 0] [0x2 1 1 [6 0] [0 4]] (REQUEST)
s 1.001869559 _13_ RTR  --- 0 AODV 48 [0 ffffffff e 800] ------- [13:255 -1:255 29 0] [0x2 2 1 [15 0] [14 4]] (REQUEST)
r 1.002646158 _11_ MAC  --- 0 AODV 48 [0 ffffffff 0 800] ------- [0:255 -1:255 30 0] [0x2 1 1 [6 0] [0 4]] (REQUEST)
r 1.002646277 _2_ MAC  --- 0 AODV 48 [0 ffffffff 0 800] ------- [0:255 -1:255 30 0] [0x2 1 1 [6 0] [0 4]] (REQUEST)
r 1.002646299 _10_ MAC  --- 0 AODV 48 [0 ffffffff 0 800] ------- [0:255 -1:255 30 0] [0x2 1 1 [6 0] [0 4]] (REQUEST)
r 1.002646326 _1_ MAC  --- 0 AODV 48 [0 ffffffff 0 800] ------- [0:255 -1:255 30 0] [0x2 1 1 [6 0] [0 4]] (REQUEST)
r 1.002646525 _9_ MAC  --- 0 AODV 48 [0 ffffffff 0 800] ------- [0:255 -1:255 30 0] [0x2 1 1 [6 0] [0 4]] (REQUEST)
r 1.002646572 _3_ MAC  --- 0 AODV 48 [0 ffffffff 0 800] ------- [0:255 -1:255 30 0] [0x2 1 1 [6 0] [0 4]] (REQUEST)
r 1.002671158 _11_ RTR  --- 0 AODV 48 [0 ffffffff 0 800] ------- [0:255 -1:255 30 0] [0x2 1 1 [6 0] [0 4]] (REQUEST)
r 1.002671277 _2_ RTR  --- 0 AODV 48 [0 ffffffff 0 800] ------- [0:255 -1:255 30 0] [0x2 1 1 [6 0] [0 4]] (REQUEST)
r 1.002671299 _10_ RTR  --- 0 AODV 48 [0 ffffffff 0 800] ------- [0:255 -1:255 30 0] [0x2 1 1 [6 0] [0 4]] (REQUEST)
r 1.002671326 _1_ RTR  --- 0 AODV 48 [0 ffffffff 0 800] ------- [0:255 -1:255 30 0] [0x2 1 1 [6 0] [0 4]] (REQUEST)
r 1.002671525 _9_ RTR  --- 0 AODV 48 [0 ffffffff 0 800] ------- [0:255 -1:255 30 0] [0x2 1 1 [6 0] [0 4]] (REQUEST)
r 1.002671572 _3_ RTR  --- 0 AODV 48 [0 ffffffff 0 800] ------- [0:255 -1:255 30 0] [0x2 1 1 [6 0] [0 4]] (REQUEST)
s 1.003099245 _10_ RTR  --- 0 AODV 48 [0 ffffffff 0 800] ------- [10:255 -1:255 29 0] [0x2 2 1 [6 0] [0 4]] (REQUEST)
s 1.003334245 _10_ MAC  --- 0 AODV 106 [0 ffffffff a 800] ------- [10:255 -1:255 29 0] [0x2 2 1 [6 0] [0 4]] (REQUEST)
s 1.003334813 _12_ RTR  --- 0 AODV 48 [0 ffffffff e 800] ------- [12:255 -1:255 29 0] [0x2 2 1 [15 0] [14 4]] (REQUEST)
s 1.003809608 _9_ RTR  --- 0 AODV 48 [0 ffffffff 0 800] ------- [9:255 -1:255 29 0] [0x2 2 1 [6 0] [0 4]] (REQUEST)
s 1.004118238 _11_ RTR  --- 0 AODV 48 [0 ffffffff e 800] ------- [11:255 -1:255 29 0] [0x2 2 1 [15 0] [14 4]] (REQUEST)
r 1.004182540 _11_ MAC  --- 0 AODV 48 [0 ffffffff a 800] ------- [10:255 -1:255 29 0] [0x2 2 1 [6 0] [0 4]] (REQUEST)
r 1.004182604 _9_ MAC  --- 0 AODV 48 [0 ffffffff a 800] ------- [10:255 -1:255 29 0] [0x2 2 1 [6 0] [0 4]] (REQUEST)
r 1.004182625 _14_ MAC  --- 0 AODV 48 [0 ffffffff a 800] ------- [10:255 -1:255 29 0] [0x2 2 1 [6 0] [0 4]] (REQUEST)
r 1.004182704 _0_ MAC  --- 0 AODV 48 [0 ffffffff a 800] ------- [10:255 -1:255 29 0] [0x2 2 1 [6 0] [0 4]] (REQUEST)
r 1.004182806 _1_ MAC  --- 0 AODV 48 [0 ffffffff a 800] ------- [10:255 -1:255 29 0] [0x2 2 1 [6 0] [0 4]] (REQUEST)
r 1.004182898 _8_ MAC  --- 0 AODV 48 [0 ffffffff a 800] ------- [10:255 -1:255 29 0] [0x2 2 1 [6 0] [0 4]] (REQUEST)
r 1.004182907 _13_ MAC  --- 0 AODV 48 [0 ffffffff a 800] ------- [10:255 -1:255 29 0] [0x2 2 1 [6 0] [0 4]] (REQUEST)
r 1.004183035 _2_ MAC  --- 0 AODV 48 [0 ffffffff a 800] ------- [10:255 -1:255 29 0] [0x2 2 1 [6 0] [0 4]] (REQUEST)
r 1.004207540 _11_ RTR  --- 0 AODV 48 [0 ffffffff a 800] ------- [10:255 -1:255 29 0] [0x2 2 1 [6 0] [0 4]] (REQUEST)
r 1.004207604 _9_ RTR  --- 0 AODV 48 [0 ffffffff a 800] ------- [10:255 -1:255 29 0] [0x2 2 1 [6 0] [0 4]] (REQUEST)
r 1.004207625 _14_ RTR  --- 0 AODV 48 [0 ffffffff a 800] ------- [10:255 -1:255 29 0] [0x2 2 1 [6 0] [0 4]] (REQUEST)
r 1.004207704 _0_ RTR  --- 0 AODV 48 [0 ffffffff a 800] ------- [10:255 -1:255 29 0] [0x2 2 1 [6 0] [0 4]] (REQUEST)
r 1.004207806 _1_ RTR  --- 0 AODV 48 [0 ffffffff a 800] ------- [10:255 -1:255 29 0] [0x2 2 1 [6 0] [0 4]] (REQUEST)
r 1.004207898 _8_ RTR  --- 0 AODV 48 [0 ffffffff a 800] ------- [10:255 -1:255 29 0] [0x2 2 1 [6 0] [0 4]] (REQUEST)
r 1.004207907 _13_ RTR  --- 0 AODV 48 [0 ffffffff a 800] ------- [10:255 -1:255 29 0] [0x2 2 1 [6 0] [0 4]] (REQUEST)
r 1.004208035 _2_ RTR  --- 0 AODV 48 [0 ffffffff a 800] ------- [10:255 -1:255 29 0] [0x2 2 1 [6 0] [0 4]] (REQUEST)
s 1.004312731 _2_ RTR  --- 0 AODV 48 [0 ffffffff 0 800] ------- [2:255 -1:255 29 0] [0x2 2 1 [6 0] [0 4]] (REQUEST)
s 1.004332907 _13_ MAC  --- 0 AODV 106 [0 ffffffff d 800] ------- [13:255 -1:255 29 0] [0x2 2 1 [15 0] [14 4]] (REQUEST)
r 1.005181239 _14_ MAC  --- 0 AODV 48 [0 ffffffff d 800] ------- [13:255 -1:255 29 0] [0x2 2 1 [15 0] [14 4]] (REQUEST)
r 1.005181420 _9_ MAC  --- 0 AODV 48 [0 ffffffff d 800] ------- [13:255 -1:255 29 0] [0x2 2 1 [15 0] [14 4]] (REQUEST)
r 1.005181428 _12_ MAC  --- 0 AODV 48 [0 ffffffff d 800] ------- [13:255 -1:255 29 0] [0x2 2 1 [15 0] [14 4]] (REQUEST)
r 1.005181531 _8_ MAC  --- 0 AODV 48 [0 ffffffff d 800] ------- [13:255 -1:255 29 0] [0x2 2 1 [15 0] [14 4]] (REQUEST)
r 1.005181569 _10_ MAC  --- 0 AODV 48 [0 ffffffff d 800] ------- [13:255 -1:255 29 0] [0x2 2 1 [15 0] [14 4]] (REQUEST)
r 1.005206239 _14_ RTR  --- 0 AODV 48 [0 ffffffff d 800] ------- [13:255 -1:255 29 0] [0x2 2 1 [15 0] [14 4]] (REQUEST)
r 1.005206420 _9_ RTR  --- 0 AODV 48 [0 ffffffff d 800] ------- [13:255 -1:255 29 0] [0x2 2 1 [15 0] [14 4]] (REQUEST)
r 1.005206428 _12_ RTR  --- 0 AODV 48 [0 ffffffff d 800] ------- [13:255 -1:255 29 0] [0x2 2 1 [15 0] [14 4]] (REQUEST)
r 1.005206531 _8_ RTR  --- 0 AODV 48 [0 ffffffff d 800] ------- [13:255 -1:255 29 0] [0x2 2 1 [15 0] [14 4]] (REQUEST)
r 1.005206569 _10_ RTR  --- 0 AODV 48 [0 ffffffff d 800] ------- [13:255 -1:255 29 0] [0x2 2 1 [15 0] [14 4]] (REQUEST)
s 1.005400114 _10_ RTR  --- 0 AODV 48 [0 ffffffff e 800] ------- [10:255 -1:255 29 0] [0x2 2 1 [15 0] [14 4]] (REQUEST)
s 1.005471420 _9_ MAC  --- 0 AODV 106 [0 ffffffff 9 800] ------- [9:255 -1:255 29 0] [0x2 2 1 [6 0] [0 4]] (REQUEST)
r 1.006319719 _8_ MAC  --- 0 AODV 48 [0 ffffffff 9 800] ------- [9:255 -1:255 29 0] [0x2 2 1 [6 0] [0 4]] (REQUEST)
r 1.006319779 _10_ MAC  --- 0 AODV 48 [0 ffffffff 9 800] ------- [9:255 -1:255 29 0] [0x2 2 1 [6 0] [0 4]] (REQUEST)
r 1.006319846 _14_ MAC  --- 0 AODV 48 [0 ffffffff 9 800] ------- [9:255 -1:255 29 0] [0x2 2 1 [6 0] [0 4]] (REQUEST)
r 1.006319897 _1_ MAC  --- 0 AODV 48 [0 ffffffff 9 800] ------- [9:255 -1:255 29 0] [0x2 2 1 [6 0] [0 4]] (REQUEST)
r 1.006319933 _13_ MAC  --- 0 AODV 48 [0 ffffffff 9 800] ------- [9:255 -1:255 29 0] [0x2 2 1 [6 0] [0 4]] (REQUEST)
r 1.006320061 _11_ MAC  --- 0 AODV 48 [0 ffffffff 9 800] ------- [9:255 -1:255 29 0] [0x2 2 1 [6 0] [0 4]] (REQUEST)
r 1.006320076 _7_ MAC  --- 0 AODV 48 [0 ffffffff 9 800] ------- [9:255 -1:255 29 0] [0x2 2 1 [6 0] [0 4]] (REQUEST)
r 1.006320091 _12_ MAC  --- 0 AODV 48 [0 ffffffff 9 800] ------- [9:255 -1:255 29 0] [0x2 2 1 [6 0] [0 4]] (REQUEST)
r 1.006320106 _0_ MAC  --- 0 AODV 48 [0 ffffffff 9 800] ------- [9:255 -1:255 29 0] [0x2 2 1 [6 0] [0 4]] (REQUEST)
r 1.006320120 _5_ MAC  --- 0 AODV 48 [0 ffffffff 9 800] ------- [9:255 -1:255 29 0] [0x2 2 1 [6 0] [0 4]] (REQUEST)
r 1.006344719 _8_ RTR  --- 0 AODV 48 [0 ffffffff 9 800] ------- [9:255 -1:255 29 0] [0x2 2 1 [6 0] [0 4]] (REQUEST)
r 1.006344779 _10_ RTR  --- 0 AODV 48 [0 ffffffff 9 800] ------- [9:255 -1:255 29 0] [0x2 2 1 [6 0] [0 4]] (REQUEST)
r 1.006344846 _14_ RTR  --- 0 AODV 48 [0 ffffffff 9 800] ------- [9:255 -1:255 29 0] [0x2 2 1 [6 0] [0 4]] (REQUEST)
r 1.006344897 _1_ RTR  --- 0 AODV 48 [0 ffffffff 9 800] ------- [9:255 -1:255 29 0] [0x2 2 1 [6 0] [0 4]] (REQUEST)
r 1.006344933 _13_ RTR  --- 0 AODV 48 [0 ffffffff 9 800] ------- [9:255 -1:255 29 0] [0x2 2 1 [6 0] [0 4]] (REQUEST)
r 1.006345061 _11_ RTR  --- 0 AODV 48 [0 ffffffff 9 800] ------- [9:255 -1:255 29 0] [0x2 2 1 [6 0] [0 4]] (REQUEST)
r 1.006345076 _7_ RTR  --- 0 AODV 48 [0 ffffffff 9 800] ------- [9:255 -1:255 29 0] [0x2 2 1 [6 0] [0 4]] (REQUEST)
r 1.006345091 _12_ RTR  --- 0 AODV 48 [0 ffffffff 9 800] ------- [9:255 -1:255 29 0] [0x2 2 1 [6 0] [0 4]] (REQUEST)
r 1.006345106 _0_ RTR  --- 0 AODV 48 [0 ffffffff 9 800] ------- [9:255 -1:255 29 0] [0x2 2 1 [6 0] [0 4]] (REQUEST)
r 1.006345120 _5_ RTR  --- 0 AODV 48 [0 ffffffff 9 800] ------- [9:255 -1:255 29 0] [0x2 2 1 [6 0] [0 4]] (REQUEST)
s 1.006590061 _11_ MAC  --- 0 AODV 106 [0 ffffffff b 800] ------- [11:255 -1:255 29 0] [0x2 2 1 [15 0] [14 4]] (REQUEST)
s 1.006788504 _14_ RTR  --- 0 AODV 48 [0 ffffffff a 800] ------- [14:255 -1:255 28 0] [0x2 3 1 [6 0] [0 4]] (REQUEST)
r 1.007438357 _10_ MAC  --- 0 AODV 48 [0 ffffffff b 800] ------- [11:255 -1:255 29 0] [0x2 2 1 [15 0] [14 4]] (REQUEST)
r 1.007438379 _0_ MAC  --- 0 AODV 48 [0 ffffffff b 800] ------- [11:255 -1:255 29 0] [0x2 2 1 [15 0] [14 4]] (REQUEST)
r 1.007438681 _14_ MAC  --- 0 AODV 48 [0 ffffffff b 800] ------- [11:255 -1:255 29 0] [0x2 2 1 [15 0] [14 4]] (REQUEST)
r 1.007438702 _9_ MAC  --- 0 AODV 48 [0 ffffffff b 800] ------- [11:255 -1:255 29 0] [0x2 2 1 [15 0] [14 4]] (REQUEST)
r 1.007438737 _1_ MAC  --- 0 AODV 48 [0 ffffffff b 800] ------- [11:255 -1:255 29 0] [0x2 2 1 [15 0] [14 4]] (REQUEST)
r 1.007438809 _2_ MAC  --- 0 AODV 48 [0 ffffffff b 800] ------- [11:255 -1:255 29 0] [0x2 2 1 [15 0] [14 4]] (REQUEST)
r 1.007463357 _10_ RTR  --- 0 AODV 48 [0 ffffffff b 800] ------- [11:255 -1:255 29 0] [0x2 2 1 [15 0] [14 4]] (REQUEST)
r 1.007463379 _0_ RTR  --- 0 AODV 48 [0 ffffffff b 800] ------- [11:255 -1:255 29 0] [0x2 2 1 [15 0] [14 4]] (REQUEST)
r 1.007463681 _14_ RTR  --- 0 AODV 48 [0 ffffffff b 800] ------- [11:255 -1:255 29 0] [0x2 2 1 [15 0] [14 4]] (REQUEST)
r 1.007463702 _9_ RTR  --- 0 AODV 48 [0 ffffffff b 800] ------- [11:255 -1:255 29 0] [0x2 2 1 [15 0] [14 4]] (REQUEST)
r 1.007463737 _1_ RTR  --- 0 AODV 48 [0 ffffffff b 800] ------- [11:255 -1:255 29 0] [0x2 2 1 [15 0] [14 4]] (REQUEST)
r 1.007463809 _2_ RTR  --- 0 AODV 48 [0 ffffffff b 800] ------- [11:255 -1:255 29 0] [0x2 2 1 [15 0] [14 4]] (REQUEST)
s 1.007788681 _14_ MAC  --- 0 AODV 106 [0 ffffffff e 800] ------- [14:255 -1:255 28 0] [0x2 3 1 [6 0] [0 4]] (REQUEST)
s 1.008294755 _8_ RTR  --- 0 AODV 48 [0 ffffffff a 800] ------- [8:255 -1:255 28 0] [0x2 3 1 [6 0] [0 4]] (REQUEST)
s 1.008516670 _7_ RTR  --- 0 AODV 48 [0 ffffffff 9 800] ------- [7:255 -1:255 28 0] [0x2 3 1 [6 0] [0 4]] (REQUEST)
s 1.008555794 _2_ RTR  --- 0 AODV 48 [0 ffffffff b 800] ------- [2:255 -1:255 28 0] [0x2 3 1 [15 0] [14 4]] (REQUEST)
r 1.008637013 _13_ MAC  --- 0 AODV 48 [0 ffffffff e 800] ------- [14:255 -1:255 28 0] [0x2 3 1 [6 0] [0 4]] (REQUEST)
r 1.008637061 _10_ MAC  --- 0 AODV 48 [0 ffffffff e 800] ------- [14:255 -1:255 28 0] [0x2 3 1 [6 0] [0 4]] (REQUEST)
r 1.008637108 _9_ MAC  --- 0 AODV 48 [0 ffffffff e 800] ------- [14:255 -1:255 28 0] [0x2 3 1 [6 0] [0 4]] (REQUEST)
r 1.008637302 _11_ MAC  --- 0 AODV 48 [0 ffffffff e 800] ------- [14:255 -1:255 28 0] [0x2 3 1 [6 0] [0 4]] (REQUEST)
r 1.008637358 _8_ MAC  --- 0 AODV 48 [0 ffffffff e 800] ------- [14:255 -1:255 28 0] [0x2 3 1 [6 0] [0 4]] (REQUEST)
r 1.008637477 _12_ MAC  --- 0 AODV 48 [0 ffffffff e 800] ------- [14:255 -1:255 28 0] [0x2 3 1 [6 0] [0 4]] (REQUEST)
r 1.008662013 _13_ RTR  --- 0 AODV 48 [0 ffffffff e 800] ------- [14:255 -1:255 28 0] [0x2 3 1 [6 0] [0 4]] (REQUEST)
r 1.008662061 _10_ RTR  --- 0 AODV 48 [0 ffffffff e 800] ------- [14:255 -1:255 28 0] [0x2 3 1 [6 0] [0 4]] (REQUEST)
r 1.008662108 _9_ RTR  --- 0 AODV 48 [0 ffffffff e 800] ------- [14:255 -1:255 28 0] [0x2 3 1 [6 0] [0 4]] (REQUEST)
r 1.008662302 _11_ RTR  --- 0 AODV 48 [0 ffffffff e 800] ------- [14:255 -1:255 28 0] [0x2 3 1 [6 0] [0 4]] (REQUEST)
r 1.008662358 _8_ RTR  --- 0 AODV 48 [0 ffffffff e 800] ------- [14:255 -1:255 28 0] [0x2 3 1 [6 0] [0 4]] (REQUEST)
r 1.008662477 _12_ RTR  --- 0 AODV 48 [0 ffffffff e 800] ------- [14:255 -1:255 28 0] [0x2 3 1 [6 0] [0 4]] (REQUEST)
s 1.008707477 _12_ MAC  --- 0 AODV 106 [0 ffffffff c 800] ------- [12:255 -1:255 29 0] [0x2 2 1 [15 0] [14 4]] (REQUEST)
s 1.008757347 _12_ RTR  --- 0 AODV 48 [0 ffffffff 9 800] ------- [12:255 -1:255 28 0] [0x2 3 1 [6 0] [0 4]] (REQUEST)
s 1.008979981 _9_ RTR  --- 0 AODV 48 [0 ffffffff e 800] ------- [9:255 -1:255 29 0] [0x2 2 1 [15 0] [14 4]] (REQUEST)
s 1.009072003 _1_ RTR  --- 0 AODV 48 [0 ffffffff 0 800] ------- [1:255 -1:255 29 0] [0x2 2 1 [6 0] [0 4]] (REQUEST)
s 1.009153437 _8_ RTR  --- 0 AODV 48 [0 ffffffff e 800] ------- [8:255 -1:255 29 0] [0x2 2 1 [15 0] [14 4]] (REQUEST)
s 1.009394395 _13_ RTR  --- 0 AODV 48 [0 ffffffff a 800] ------- [13:255 -1:255 28 0] [0x2 3 1 [6 0] [0 4]] (REQUEST)
r 1.009555991 _8_ MAC  --- 0 AODV 48 [0 ffffffff c 800] ------- [12:255 -1:255 29 0] [0x2 2 1 [15 0] [14 4]] (REQUEST)
r 1.009555998 _13_ MAC  --- 0 AODV 48 [0 ffffffff c 800] ------- [12:255 -1:255 29 0] [0x2 2 1 [15 0] [14 4]] (REQUEST)
r 1.009556103 _7_ MAC  --- 0 AODV 48 [0 ffffffff c 800] ------- [12:255 -1:255 29 0] [0x2 2 1 [15 0] [14 4]] (REQUEST)
r 1.009556123 _15_ MAC  --- 0 AODV 48 [0 ffffffff c 800] ------- [12:255 -1:255 29 0] [0x2 2 1 [15 0] [14 4]] (REQUEST)
r 1.009556147 _9_ MAC  --- 0 AODV 48 [0 ffffffff c 800] ------- [12:255 -1:255 29 0] [0x2 2 1 [15 0] [14 4]] (REQUEST)
r 1.009556272 _14_ MAC  --- 0 AODV 48 [0 ffffffff c 800] ------- [12:255 -1:255 29 0] [0x2 2 1 [15 0] [14 4]] (REQUEST)
r 1.009580991 _8_ RTR  --- 0 AODV 48 [0 ffffffff c 800] ------- [12:255 -1:255 29 0] [0x2 2 1 [15 0] [14 4]] (REQUEST)
r 1.009580998 _13_ RTR  --- 0 AODV 48 [0 ffffffff c 800] ------- [12:255 -1:255 29 0] [0x2 2 1 [15 0] [14 4]] (REQUEST)
r 1.009581103 _7_ RTR  --- 0 AODV 48 [0 ffffffff c 800] ------- [12:255 -1:255 29 0] [0x2 2 1 [15 0] [14 4]] (REQUEST)
r 1.009581123 _15_ RTR  --- 0 AODV 48 [0 ffffffff c 800] ------- [12:255 -1:255 29 0] [0x2 2 1 [15 0] [14 4]] (REQUEST)
s 1.009581123 _15_ RTR  --- 0 AODV 44 [0 0 0 0] ------- [15:255 14:255 30 12] [0x4 1 [15 4] 10.000000] (REPLY)
r 1.009581147 _9_ RTR  --- 0 AODV 48 [0 ffffffff c 800] ------- [12:255 -1:255 29 0] [0x2 2 1 [15 0] [14 4]] (REQUEST)
r 1.009581272 _14_ RTR  --- 0 AODV 48 [0 ffffffff c 800] ------- [12:255 -1:255 29 0] [0x2 2 1 [15 0] [14 4]] (REQUEST)
s 1.009665477 _12_ MAC  --- 0 AODV 106 [0 ffffffff c 800] ------- [12:255 -1:255 28 0] [0x2 3 1 [6 0] [0 4]] (REQUEST)
s 1.009689186 _7_ RTR  --- 0 AODV 48 [0 ffffffff c 800] ------- [7:255 -1:255 28 0] [0x2 3 1 [15 0] [14 4]] (REQUEST)
r 1.010513991 _8_ MAC  --- 0 AODV 48 [0 ffffffff c 800] ------- [12:255 -1:255 28 0] [0x2 3 1 [6 0] [0 4]] (REQUEST)
r 1.010513998 _13_ MAC  --- 0 AODV 48 [0 ffffffff c 800] ------- [12:255 -1:255 28 0] [0x2 3 1 [6 0] [0 4]] (REQUEST)
r 1.010514103 _7_ MAC  --- 0 AODV 48 [0 ffffffff c 800] ------- [12:255 -1:255 28 0] [0x2 3 1 [6 0] [0 4]] (REQUEST)
r 1.010514123 _15_ MAC  --- 0 AODV 48 [0 ffffffff c 800] ------- [12:255 -1:255 28 0] [0x2 3 1 [6 0] [0 4]] (REQUEST)
r 1.010514147 _9_ MAC  --- 0 AODV 48 [0 ffffffff c 800] ------- [12:255 -1:255 28 0] [0x2 3 1 [6 0] [0 4]] (REQUEST)
r 1.010514272 _14_ MAC  --- 0 AODV 48 [0 ffffffff c 800] ------- [12:255 -1:255 28 0] [0x2 3 1 [6 0] [0 4]] (REQUEST)
r 1.010538991 _8_ RTR  --- 0 AODV 48 [0 ffffffff c 800] ------- [12:255 -1:255 28 0] [0x2 3 1 [6 0] [0 4]] (REQUEST)
r 1.010538998 _13_ RTR  --- 0 AODV 48 [0 ffffffff c 800] ------- [12:255 -1:255 28 0] [0x2 3 1 [6 0] [0 4]] (REQUEST)
r 1.010539103 _7_ RTR  --- 0 AODV 48 [0 ffffffff c 800] ------- [12:255 -1:255 28 0] [0x2 3 1 [6 0] [0 4]] (REQUEST)
r 1.010539123 _15_ RTR  --- 0 AODV 48 [0 ffffffff c 800] ------- [12:255 -1:255 28 0] [0x2 3 1 [6 0] [0 4]] (REQUEST)
r 1.010539147 _9_ RTR  --- 0 AODV 48 [0 ffffffff c 800] ------- [12:255 -1:255 28 0] [0x2 3 1 [6 0] [0 4]] (REQUEST)
r 1.010539272 _14_ RTR  --- 0 AODV 48 [0 ffffffff c 800] ------- [12:255 -1:255 28 0] [0x2 3 1 [6 0] [0 4]] (REQUEST)
s 1.010624103 _7_ MAC  --- 0 AODV 106 [0 ffffffff 7 800] ------- [7:255 -1:255 28 0] [0x2 3 1 [6 0] [0 4]] (REQUEST)
s 1.011034393 _11_ RTR  --- 0 AODV 48 [0 ffffffff 0 800] ------- [11:255 -1:255 29 0] [0x2 2 1 [6 0] [0 4]] (REQUEST)
s 1.011268849 _3_ RTR  --- 0 AODV 48 [0 ffffffff 0 800] ------- [3:255 -1:255 29 0] [0x2 2 1 [6 0] [0 4]] (REQUEST)
r 1.011472447 _5_ MAC  --- 0 AODV 48 [0 ffffffff 7 800] ------- [7:255 -1:255 28 0] [0x2 3 1 [6 0] [0 4]] (REQUEST)
r 1.011472467 _8_ MAC  --- 0 AODV 48 [0 ffffffff 7 800] ------- [7:255 -1:255 28 0] [0x2 3 1 [6 0] [0 4]] (REQUEST)
r 1.011472492 _15_ MAC  --- 0 AODV 48 [0 ffffffff 7 800] ------- [7:255 -1:255 28 0] [0x2 3 1 [6 0] [0 4]] (REQUEST)
r 1.011472627 _6_ MAC  --- 0 AODV 48 [0 ffffffff 7 800] ------- [7:255 -1:255 28 0] [0x2 3 1 [6 0] [0 4]] (REQUEST)
r 1.011472729 _12_ MAC  --- 0 AODV 48 [0 ffffffff 7 800] ------- [7:255 -1:255 28 0] [0x2 3 1 [6 0] [0 4]] (REQUEST)
r 1.011472744 _4_ MAC  --- 0 AODV 48 [0 ffffffff 7 800] ------- [7:255 -1:255 28 0] [0x2 3 1 [6 0] [0 4]] (REQUEST)
r 1.011472759 _9_ MAC  --- 0 AODV 48 [0 ffffffff 7 800] ------- [7:255 -1:255 28 0] [0x2 3 1 [6 0] [0 4]] (REQUEST)
r 1.011472794 _1_ MAC  --- 0 AODV 48 [0 ffffffff 7 800] ------- [7:255 -1:255 28 0] [0x2 3 1 [6 0] [0 4]] (REQUEST)
r 1.011497447 _5_ RTR  --- 0 AODV 48 [0 ffffffff 7 800] ------- [7:255 -1:255 28 0] [0x2 3 1 [6 0] [0 4]] (REQUEST)
r 1.011497467 _8_ RTR  --- 0 AODV 48 [0 ffffffff 7 800] ------- [7:255 -1:255 28 0] [0x2 3 1 [6 0] [0 4]] (REQUEST)
r 1.011497492 _15_ RTR  --- 0 AODV 48 [0 ffffffff 7 800] ------- [7:255 -1:255 28 0] [0x2 3 1 [6 0] [0 4]] (REQUEST)
r 1.011497627 _6_ RTR  --- 0 AODV 48 [0 ffffffff 7 800] ------- [7:255 -1:255 28 0] [0x2 3 1 [6 0] [0 4]] (REQUEST)
s 1.011497627 _6_ RTR  --- 0 AODV 44 [0 0 0 0] ------- [6:255 0:255 30 7] [0x4 1 [6 4] 10.000000] (REPLY)
r 1.011497729 _12_ RTR  --- 0 AODV 48 [0 ffffffff 7 800] ------- [7:255 -1:255 28 0] [0x2 3 1 [6 0] [0 4]] (REQUEST)
r 1.011497744 _4_ RTR  --- 0 AODV 48 [0 ffffffff 7 800] ------- [7:255 -1:255 28 0] [0x2 3 1 [6 0] [0 4]] (REQUEST)
r 1.011497759 _9_ RTR  --- 0 AODV 48 [0 ffffffff 7 800] ------- [7:255 -1:255 28 0] [0x2 3 1 [6 0] [0 4]] (REQUEST)
r 1.011497794 _1_ RTR  --- 0 AODV 48 [0 ffffffff 7 800] ------- [7:255 -1:255 28 0] [0x2 3 1 [6 0] [0 4]] (REQUEST)
s 1.011518927 _1_ RTR  --- 0 AODV 48 [0 ffffffff b 800] ------- [1:255 -1:255 28 0] [0x2 3 1 [15 0] [14 4]] (REQUEST)
s 1.011552627 _6_ MAC  --- 0 ARP 86 [0 ffffffff 6 806] ------- [REQUEST 6/6 0/7]
s 1.011770158 _15_ RTR  --- 0 AODV 48 [0 ffffffff c 800] ------- [15:255 -1:255 27 0] [0x2 4 1 [6 0] [0 4]] (REQUEST)
r 1.012241108 _15_ MAC  --- 0 ARP 28 [0 ffffffff 6 806] ------- [REQUEST 6/6 0/7]
r 1.012241151 _7_ MAC  --- 0 ARP 28 [0 ffffffff 6 806] ------- [REQUEST 6/6 0/7]
r 1.012241190 _5_ MAC  --- 0 ARP 28 [0 ffffffff 6 806] ------- [REQUEST 6/6 0/7]
r 1.012241253 _4_ MAC  --- 0 ARP 28 [0 ffffffff 6 806] ------- [REQUEST 6/6 0/7]
s 1.012531108 _15_ MAC  --- 0 ARP 86 [0 ffffffff f 806] ------- [REQUEST 15/15 0/12]
r 1.013219497 _7_ MAC  --- 0 ARP 28 [0 ffffffff f 806] ------- [REQUEST 15/15 0/12]
r 1.013219589 _6_ MAC  --- 0 ARP 28 [0 ffffffff f 806] ------- [REQUEST 15/15 0/12]
r 1.013219754 _12_ MAC  --- 0 ARP 28 [0 ffffffff f 806] ------- [REQUEST 15/15 0/12]
r 1.013219791 _8_ MAC  --- 0 ARP 28 [0 ffffffff f 806] ------- [REQUEST 15/15 0/12]
r 1.013219796 _5_ MAC  --- 0 ARP 28 [0 ffffffff f 806] ------- [REQUEST 15/15 0/12]
s 1.013289497 _7_ MAC  --- 0 AODV 106 [0 ffffffff 7 800] ------- [7:255 -1:255 28 0] [0x2 3 1 [15 0] [14 4]] (REQUEST)
r 1.014137842 _5_ MAC  --- 0 AODV 48 [0 ffffffff 7 800] ------- [7:255 -1:255 28 0] [0x2 3 1 [15 0] [14 4]] (REQUEST)
r 1.014137861 _8_ MAC  --- 0 AODV 48 [0 ffffffff 7 800] ------- [7:255 -1:255 28 0] [0x2 3 1 [15 0] [14 4]] (REQUEST)
r 1.014137887 _15_ MAC  --- 0 AODV 48 [0 ffffffff 7 800] ------- [7:255 -1:255 28 0] [0x2 3 1 [15 0] [14 4]] (REQUEST)
r 1.014138021 _6_ MAC  --- 0 AODV 48 [0 ffffffff 7 800] ------- [7:255 -1:255 28 0] [0x2 3 1 [15 0] [14 4]] (REQUEST)
r 1.014138123 _12_ MAC  --- 0 AODV 48 [0 ffffffff 7 800] ------- [7:255 -1:255 28 0] [0x2 3 1 [15 0] [14 4]] (REQUEST)
r 1.014138139 _4_ MAC  --- 0 AODV 48 [0 ffffffff 7 800] ------- [7:255 -1:255 28 0] [0x2 3 1 [15 0] [14 4]] (REQUEST)
r 1.014138153 _9_ MAC  --- 0 AODV 48 [0 ffffffff 7 800] ------- [7:255 -1:255 28 0] [0x2 3 1 [15 0] [14 4]] (REQUEST)
r 1.014138188 _1_ MAC  --- 0 AODV 48 [0 ffffffff 7 800] ------- [7:255 -1:255 28 0] [0x2 3 1 [15 0] [14 4]] (REQUEST)
r 1.014162842 _5_ RTR  --- 0 AODV 48 [0 ffffffff 7 800] ------- [7:255 -1:255 28 0] [0x2 3 1 [15 0] [14 4]] (REQUEST)
r 1.014162861 _8_ RTR  --- 0 AODV 48 [0 ffffffff 7 800] ------- [7:255 -1:255 28 0] [0x2 3 1 [15 0] [14 4]] (REQUEST)
r 1.014162887 _15_ RTR  --- 0 AODV 48 [0 ffffffff 7 800] ------- [7:255 -1:255 28 0] [0x2 3 1 [15 0] [14 4]] (REQUEST)
r 1.014163021 _6_ RTR  --- 0 AODV 48 [0 ffffffff 7 800] ------- [7:255 -1:255 28 0] [0x2 3 1 [15 0] [14 4]] (REQUEST)
r 1.014163123 _12_ RTR  --- 0 AODV 48 [0 ffffffff 7 800] ------- [7:255 -1:255 28 0] [0x2 3 1 [15 0] [14 4]] (REQUEST)
r 1.014163139 _4_ RTR  --- 0 AODV 48 [0 ffffffff 7 800] ------- [7:255 -1:255 28 0] [0x2 3 1 [15 0] [14 4]] (REQUEST)
r 1.014163153 _9_ RTR  --- 0 AODV 48 [0 ffffffff 7 800] ------- [7:255 -1:255 28 0] [0x2 3 1 [15 0] [14 4]] (REQUEST)
r 1.014163188 _1_ RTR  --- 0 AODV 48 [0 ffffffff 7 800] ------- [7:255 -1:255 28 0] [0x2 3 1 [15 0] [14 4]] (REQUEST)
s 1.014227861 _8_ MAC  --- 0 AODV 106 [0 ffffffff 8 800] ------- [8:255 -1:255 28 0] [0x2 3 1 [6 0] [0 4]] (REQUEST)
s 1.014438596 _6_ RTR  --- 0 AODV 48 [0 ffffffff 7 800] ------- [6:255 -1:255 27 0] [0x2 4 1 [15 0] [14 4]] (REQUEST)
s 1.014856186 _5_ RTR  --- 0 AODV 48 [0 ffffffff 9 800] ------- [5:255 -1:255 28 0] [0x2 3 1 [6 0] [0 4]] (REQUEST)
r 1.015076161 _9_ MAC  --- 0 AODV 48 [0 ffffffff 8 800] ------- [8:255 -1:255 28 0] [0x2 3 1 [6 0] [0 4]] (REQUEST)
r 1.015076225 _7_ MAC  --- 0 AODV 48 [0 ffffffff 8 800] ------- [8:255 -1:255 28 0] [0x2 3 1 [6 0] [0 4]] (REQUEST)
r 1.015076364 _5_ MAC  --- 0 AODV 48 [0 ffffffff 8 800] ------- [8:255 -1:255 28 0] [0x2 3 1 [6 0] [0 4]] (REQUEST)
r 1.015076376 _12_ MAC  --- 0 AODV 48 [0 ffffffff 8 800] ------- [8:255 -1:255 28 0] [0x2 3 1 [6 0] [0 4]] (REQUEST)
r 1.015076391 _1_ MAC  --- 0 AODV 48 [0 ffffffff 8 800] ------- [8:255 -1:255 28 0] [0x2 3 1 [6 0] [0 4]] (REQUEST)
r 1.015076486 _13_ MAC  --- 0 AODV 48 [0 ffffffff 8 800] ------- [8:255 -1:255 28 0] [0x2 3 1 [6 0] [0 4]] (REQUEST)
r 1.015076515 _10_ MAC  --- 0 AODV 48 [0 ffffffff 8 800] ------- [8:255 -1:255 28 0] [0x2 3 1 [6 0] [0 4]] (REQUEST)
r 1.015076538 _14_ MAC  --- 0 AODV 48 [0 ffffffff 8 800] ------- [8:255 -1:255 28 0] [0x2 3 1 [6 0] [0 4]] (REQUEST)
r 1.015076545 _15_ MAC  --- 0 AODV 48 [0 ffffffff 8 800] ------- [8:255 -1:255 28 0] [0x2 3 1 [6 0] [0 4]] (REQUEST)
r 1.015076672 _4_ MAC  --- 0 AODV 48 [0 ffffffff 8 800] ------- [8:255 -1:255 28 0] [0x2 3 1 [6 0] [0 4]] (REQUEST)
r 1.015101161 _9_ RTR  --- 0 AODV 48 [0 ffffffff 8 800] ------- [8:255 -1:255 28 0] [0x2 3 1 [6 0] [0 4]] (REQUEST)
r 1.015101225 _7_ RTR  --- 0 AODV 48 [0 ffffffff 8 800] ------- [8:255 -1:255 28 0] [0x2 3 1 [6 0] [0 4]] (REQUEST)
r 1.015101364 _5_ RTR  --- 0 AODV 48 [0 ffffffff 8 800] ------- [8:255 -1:255 28 0] [0x2 3 1 [6 0] [0 4]] (REQUEST)
r 1.015101376 _12_ RTR  --- 0 AODV 48 [0 ffffffff 8 800] ------- [8:255 -1:255 28 0] [0x2 3 1 [6 0] [0 4]] (REQUEST)
r 1.015101391 _1_ RTR  --- 0 AODV 48 [0 ffffffff 8 800] ------- [8:255 -1:255 28 0] [0x2 3 1 [6 0] [0 4]] (REQUEST)
r 1.015101486 _13_ RTR  --- 0 AODV 48 [0 ffffffff 8 800] ------- [8:255 -1:255 28 0] [0x2 3 1 [6 0] [0 4]] (REQUEST)
r 1.015101515 _10_ RTR  --- 0 AODV 48 [0 ffffffff 8 800] ------- [8:255 -1:255 28 0] [0x2 3 1 [6 0] [0 4]] (REQUEST)
r 1.015101538 _14_ RTR  --- 0 AODV 48 [0 ffffffff 8 800] ------- [8:255 -1:255 28 0] [0x2 3 1 [6 0] [0 4]] (REQUEST)
r 1.015101545 _15_ RTR  --- 0 AODV 48 [0 ffffffff 8 800] ------- [8:255 -1:255 28 0] [0x2 3 1 [6 0] [0 4]] (REQUEST)
r 1.015101672 _4_ RTR  --- 0 AODV 48 [0 ffffffff 8 800] ------- [8:255 -1:255 28 0] [0x2 3 1 [6 0] [0 4]] (REQUEST)
s 1.015166515 _10_ MAC  --- 0 AODV 106 [0 ffffffff a 800] ------- [10:255 -1:255 29 0] [0x2 2 1 [15 0] [14 4]] (REQUEST)
r 1.016014810 _11_ MAC  --- 0 AODV 48 [0 ffffffff a 800] ------- [10:255 -1:255 29 0] [0x2 2 1 [15 0] [14 4]] (REQUEST)
r 1.016014873 _9_ MAC  --- 0 AODV 48 [0 ffffffff a 800] ------- [10:255 -1:255 29 0] [0x2 2 1 [15 0] [14 4]] (REQUEST)
r 1.016014895 _14_ MAC  --- 0 AODV 48 [0 ffffffff a 800] ------- [10:255 -1:255 29 0] [0x2 2 1 [15 0] [14 4]] (REQUEST)
r 1.016014974 _0_ MAC  --- 0 AODV 48 [0 ffffffff a 800] ------- [10:255 -1:255 29 0] [0x2 2 1 [15 0] [14 4]] (REQUEST)
r 1.016015076 _1_ MAC  --- 0 AODV 48 [0 ffffffff a 800] ------- [10:255 -1:255 29 0] [0x2 2 1 [15 0] [14 4]] (REQUEST)
r 1.016015168 _8_ MAC  --- 0 AODV 48 [0 ffffffff a 800] ------- [10:255 -1:255 29 0] [0x2 2 1 [15 0] [14 4]] (REQUEST)
r 1.016015177 _13_ MAC  --- 0 AODV 48 [0 ffffffff a 800] ------- [10:255 -1:255 29 0] [0x2 2 1 [15 0] [14 4]] (REQUEST)
r 1.016015305 _2_ MAC  --- 0 AODV 48 [0 ffffffff a 800] ------- [10:255 -1:255 29 0] [0x2 2 1 [15 0] [14 4]] (REQUEST)
r 1.016039810 _11_ RTR  --- 0 AODV 48 [0 ffffffff a 800] ------- [10:255 -1:255 29 0] [0x2 2 1 [15 0] [14 4]] (REQUEST)
r 1.016039873 _9_ RTR  --- 0 AODV 48 [0 ffffffff a 800] ------- [10:255 -1:255 29 0] [0x2 2 1 [15 0] [14 4]] (REQUEST)
r 1.016039895 _14_ RTR  --- 0 AODV 48 [0 ffffffff a 800] ------- [10:255 -1:255 29 0] [0x2 2 1 [15 0] [14 4]] (REQUEST)
r 1.016039974 _0_ RTR  --- 0 AODV 48 [0 ffffffff a 800] ------- [10:255 -1:255 29 0] [0x2 2 1 [15 0] [14 4]] (REQUEST)
r 1.016040076 _1_ RTR  --- 0 AODV 48 [0 ffffffff a 800] ------- [10:255 -1:255 29 0] [0x2 2 1 [15 0] [14 4]] (REQUEST)
r 1.016040168 _8_ RTR  --- 0 AODV 48 [0 ffffffff a 800] ------- [10:255 -1:255 29 0] [0x2 2 1 [15 0] [14 4]] (REQUEST)
r 1.016040177 _13_ RTR  --- 0 AODV 48 [0 ffffffff a 800] ------- [10:255 -1:255 29 0] [0x2 2 1 [15 0] [14 4]] (REQUEST)
r 1.016040305 _2_ RTR  --- 0 AODV 48 [0 ffffffff a 800] ------- [10:255 -1:255 29 0] [0x2 2 1 [15 0] [14 4]] (REQUEST)
s 1.016084873 _9_ MAC  --- 0 AODV 106 [0 ffffffff 9 800] ------- [9:255 -1:255 29 0] [0x2 2 1 [15 0] [14 4]] (REQUEST)
s 1.016512834 _0_ RTR  --- 0 AODV 48 [0 ffffffff b 800] ------- [0:255 -1:255 28 0] [0x2 3 1 [15 0] [14 4]] (REQUEST)
r 1.016933173 _8_ MAC  --- 0 AODV 48 [0 ffffffff 9 800] ------- [9:255 -1:255 29 0] [0x2 2 1 [15 0] [14 4]] (REQUEST)
r 1.016933232 _10_ MAC  --- 0 AODV 48 [0 ffffffff 9 800] ------- [9:255 -1:255 29 0] [0x2 2 1 [15 0] [14 4]] (REQUEST)
r 1.016933300 _14_ MAC  --- 0 AODV 48 [0 ffffffff 9 800] ------- [9:255 -1:255 29 0] [0x2 2 1 [15 0] [14 4]] (REQUEST)
r 1.016933350 _1_ MAC  --- 0 AODV 48 [0 ffffffff 9 800] ------- [9:255 -1:255 29 0] [0x2 2 1 [15 0] [14 4]] (REQUEST)
r 1.016933387 _13_ MAC  --- 0 AODV 48 [0 ffffffff 9 800] ------- [9:255 -1:255 29 0] [0x2 2 1 [15 0] [14 4]] (REQUEST)
r 1.016933515 _11_ MAC  --- 0 AODV 48 [0 ffffffff 9 800] ------- [9:255 -1:255 29 0] [0x2 2 1 [15 0] [14 4]] (REQUEST)
r 1.016933529 _7_ MAC  --- 0 AODV 48 [0 ffffffff 9 800] ------- [9:255 -1:255 29 0] [0x2 2 1 [15 0] [14 4]] (REQUEST)
r 1.016933544 _12_ MAC  --- 0 AODV 48 [0 ffffffff 9 800] ------- [9:255 -1:255 29 0] [0x2 2 1 [15 0] [14 4]] (REQUEST)
r 1.016933559 _0_ MAC  --- 0 AODV 48 [0 ffffffff 9 800] ------- [9:255 -1:255 29 0] [0x2 2 1 [15 0] [14 4]] (REQUEST)
r 1.016933574 _5_ MAC  --- 0 AODV 48 [0 ffffffff 9 800] ------- [9:255 -1:255 29 0] [0x2 2 1 [15 0] [14 4]] (REQUEST)
r 1.016958173 _8_ RTR  --- 0 AODV 48 [0 ffffffff 9 800] ------- [9:255 -1:255 29 0] [0x2 2 1 [15 0] [14 4]] (REQUEST)
r 1.016958232 _10_ RTR  --- 0 AODV 48 [0 ffffffff 9 800] ------- [9:255 -1:255 29 0] [0x2 2 1 [15 0] [14 4]] (REQUEST)
r 1.016958300 _14_ RTR  --- 0 AODV 48 [0 ffffffff 9 800] ------- [9:255 -1:255 29 0] [0x2 2 1 [15 0] [14 4]] (REQUEST)
r 1.016958350 _1_ RTR  --- 0 AODV 48 [0 ffffffff 9 800] ------- [9:255 -1:255 29 0] [0x2 2 1 [15 0] [14 4]] (REQUEST)
r 1.016958387 _13_ RTR  --- 0 AODV 48 [0 ffffffff 9 800] ------- [9:255 -1:255 29 0] [0x2 2 1 [15 0] [14 4]] (REQUEST)
r 1.016958515 _11_ RTR  --- 0 AODV 48 [0 ffffffff 9 800] ------- [9:255 -1:255 29 0] [0x2 2 1 [15 0] [14 4]] (REQUEST)