s 0.009276431 _0_ RTR  --- 0 message 32 [0 0 0 0] ------- [0:255 -1:255 32 0] 
s 0.009831431 _0_ MAC  --- 0 message 90 [0 ffffffff 0 800] ------- [0:255 -1:255 32 0] 
r 0.010551750 _11_ MAC  --- 0 message 32 [0 ffffffff 0 800] ------- [0:255 -1:255 32 0] 
r 0.010551869 _2_ MAC  --- 0 message 32 [0 ffffffff 0 800] ------- [0:255 -1:255 32 0] 
r 0.010551891 _10_ MAC  --- 0 message 32 [0 ffffffff 0 800] ------- [0:255 -1:255 32 0] 
r 0.010551918 _1_ MAC  --- 0 message 32 [0 ffffffff 0 800] ------- [0:255 -1:255 32 0] 
r 0.010552117 _9_ MAC  --- 0 message 32 [0 ffffffff 0 800] ------- [0:255 -1:255 32 0] 
r 0.010552164 _3_ MAC  --- 0 message 32 [0 ffffffff 0 800] ------- [0:255 -1:255 32 0] 
r 0.010576750 _11_ RTR  --- 0 message 32 [0 ffffffff 0 800] ------- [0:255 -1:255 32 0] 
r 0.010576869 _2_ RTR  --- 0 message 32 [0 ffffffff 0 800] ------- [0:255 -1:255 32 0] 
r 0.010576891 _10_ RTR  --- 0 message 32 [0 ffffffff 0 800] ------- [0:255 -1:255 32 0] 
r 0.010576918 _1_ RTR  --- 0 message 32 [0 ffffffff 0 800] ------- [0:255 -1:255 32 0] 
r 0.010577117 _9_ RTR  --- 0 message 32 [0 ffffffff 0 800] ------- [0:255 -1:255 32 0] 
r 0.010577164 _3_ RTR  --- 0 message 32 [0 ffffffff 0 800] ------- [0:255 -1:255 32 0] 
s 0.036479607 _2_ RTR  --- 1 message 32 [0 0 0 0] ------- [2:255 -1:255 32 0] 
s 0.036774607 _2_ MAC  --- 1 message 90 [0 ffffffff 2 800] ------- [2:255 -1:255 32 0] 
r 0.037494951 _3_ MAC  --- 1 message 32 [0 ffffffff 2 800] ------- [2:255 -1:255 32 0] 
r 0.037495005 _1_ MAC  --- 1 message 32 [0 ffffffff 2 800] ------- [2:255 -1:255 32 0] 
r 0.037495045 _0_ MAC  --- 1 message 32 [0 ffffffff 2 800] ------- [2:255 -1:255 32 0] 
r 0.037495324 _4_ MAC  --- 1 message 32 [0 ffffffff 2 800] ------- [2:255 -1:255 32 0] 
r 0.037495355 _11_ MAC  --- 1 message 32 [0 ffffffff 2 800] ------- [2:255 -1:255 32 0] 
r 0.037495366 _5_ MAC  --- 1 message 32 [0 ffffffff 2 800] ------- [2:255 -1:255 32 0] 
r 0.037495397 _10_ MAC  --- 1 message 32 [0 ffffffff 2 800] ------- [2:255 -1:255 32 0] 
r 0.037519951 _3_ RTR  --- 1 message 32 [0 ffffffff 2 800] ------- [2:255 -1:255 32 0] 
r 0.037520005 _1_ RTR  --- 1 message 32 [0 ffffffff 2 800] ------- [2:255 -1:255 32 0] 
r 0.037520045 _0_ RTR  --- 1 message 32 [0 ffffffff 2 800] ------- [2:255 -1:255 32 0] 
r 0.037520324 _4_ RTR  --- 1 message 32 [0 ffffffff 2 800] ------- [2:255 -1:255 32 0] 
r 0.037520355 _11_ RTR  --- 1 message 32 [0 ffffffff 2 800] ------- [2:255 -1:255 32 0] 
r 0.037520366 _5_ RTR  --- 1 message 32 [0 ffffffff 2 800] ------- [2:255 -1:255 32 0] 
r 0.037520397 _10_ RTR  --- 1 message 32 [0 ffffffff 2 800] ------- [2:255 -1:255 32 0] 
s 0.090775603 _13_ RTR  --- 2 message 32 [0 0 0 0] ------- [13:255 -1:255 32 0] 
s 0.091030603 _13_ MAC  --- 2 message 90 [0 ffffffff d 800] ------- [13:255 -1:255 32 0] 
r 0.091750935 _14_ MAC  --- 2 message 32 [0 ffffffff d 800] ------- [13:255 -1:255 32 0] 
r 0.091751117 _9_ MAC  --- 2 message 32 [0 ffffffff d 800] ------- [13:255 -1:255 32 0] 
r 0.091751125 _12_ MAC  --- 2 message 32 [0 ffffffff d 800] ------- [13:255 -1:255 32 0] 
r 0.091751228 _8_ MAC  --- 2 message 32 [0 ffffffff d 800] ------- [13:255 -1:255 32 0] 
r 0.091751265 _10_ MAC  --- 2 message 32 [0 ffffffff d 800] ------- [13:255 -1:255 32 0] 
r 0.091775935 _14_ RTR  --- 2 message 32 [0 ffffffff d 800] ------- [13:255 -1:255 32 0] 
r 0.091776117 _9_ RTR  --- 2 message 32 [0 ffffffff d 800] ------- [13:255 -1:255 32 0] 
r 0.091776125 _12_ RTR  --- 2 message 32 [0 ffffffff d 800] ------- [13:255 -1:255 32 0] 
r 0.091776228 _8_ RTR  --- 2 message 32 [0 ffffffff d 800] ------- [13:255 -1:255 32 0] 
r 0.091776265 _10_ RTR  --- 2 message 32 [0 ffffffff d 800] ------- [13:255 -1:255 32 0] 
s 0.184643595 _3_ RTR  --- 3 message 32 [0 0 0 0] ------- [3:255 -1:255 32 0] 
s 0.185078595 _3_ MAC  --- 3 message 90 [0 ffffffff 3 800] ------- [3:255 -1:255 32 0] 
r 0.185798939 _2_ MAC  --- 3 message 32 [0 ffffffff 3 800] ------- [3:255 -1:255 32 0] 
r 0.185798974 _4_ MAC  --- 3 message 32 [0 ffffffff 3 800] ------- [3:255 -1:255 32 0] 
r 0.185799010 _1_ MAC  --- 3 message 32 [0 ffffffff 3 800] ------- [3:255 -1:255 32 0] 
r 0.185799101 _5_ MAC  --- 3 message 32 [0 ffffffff 3 800] ------- [3:255 -1:255 32 0] 
r 0.185799327 _0_ MAC  --- 3 message 32 [0 ffffffff 3 800] ------- [3:255 -1:255 32 0] 
r 0.185823939 _2_ RTR  --- 3 message 32 [0 ffffffff 3 800] ------- [3:255 -1:255 32 0] 
r 0.185823974 _4_ RTR  --- 3 message 32 [0 ffffffff 3 800] ------- [3:255 -1:255 32 0] 
r 0.185824010 _1_ RTR  --- 3 message 32 [0 ffffffff 3 800] ------- [3:255 -1:255 32 0] 
r 0.185824101 _5_ RTR  --- 3 message 32 [0 ffffffff 3 800] ------- [3:255 -1:255 32 0] 
r 0.185824327 _0_ RTR  --- 3 message 32 [0 ffffffff 3 800] ------- [3:255 -1:255 32 0] 
s 0.234389987 _15_ RTR  --- 4 message 32 [0 0 0 0] ------- [15:255 -1:255 32 0] 
s 0.234604987 _15_ MAC  --- 4 message 90 [0 ffffffff f 800] ------- [15:255 -1:255 32 0] 
r 0.235325376 _7_ MAC  --- 4 message 32 [0 ffffffff f 800] ------- [15:255 -1:255 32 0] 
r 0.235325468 _6_ MAC  --- 4 message 32 [0 ffffffff f 800] ------- [15:255 -1:255 32 0] 
r 0.235325632 _12_ MAC  --- 4 message 32 [0 ffffffff f 800] ------- [15:255 -1:255 32 0] 
r 0.235325670 _8_ MAC  --- 4 message 32 [0 ffffffff f 800] ------- [15:255 -1:255 32 0] 
r 0.235325675 _5_ MAC  --- 4 message 32 [0 ffffffff f 800] ------- [15:255 -1:255 32 0] 
r 0.235350376 _7_ RTR  --- 4 message 32 [0 ffffffff f 800] ------- [15:255 -1:255 32 0] 
r 0.235350468 _6_ RTR  --- 4 message 32 [0 ffffffff f 800] ------- [15:255 -1:255 32 0] 
r 0.235350632 _12_ RTR  --- 4 message 32 [0 ffffffff f 800] ------- [15:255 -1:255 32 0] 
r 0.235350670 _8_ RTR  --- 4 message 32 [0 ffffffff f 800] ------- [15:255 -1:255 32 0] 
r 0.235350675 _5_ RTR  --- 4 message 32 [0 ffffffff f 800] ------- [15:255 -1:255 32 0] 
s 0.329382798 _12_ RTR  --- 5 message 32 [0 0 0 0] ------- [12:255 -1:255 32 0] 
s 0.329557798 _12_ MAC  --- 5 message 90 [0 ffffffff c 800] ------- [12:255 -1:255 32 0] 
r 0.330278312 _8_ MAC  --- 5 message 32 [0 ffffffff c 800] ------- [12:255 -1:255 32 0] 
r 0.330278319 _13_ MAC  --- 5 message 32 [0 ffffffff c 800] ------- [12:255 -1:255 32 0] 
r 0.330278424 _7_ MAC  --- 5 message 32 [0 ffffffff c 800] ------- [12:255 -1:255 32 0] 
r 0.330278444 _15_ MAC  --- 5 message 32 [0 ffffffff c 800] ------- [12:255 -1:255 32 0] 
r 0.330278468 _9_ MAC  --- 5 message 32 [0 ffffffff c 800] ------- [12:255 -1:255 32 0] 
r 0.330278593 _14_ MAC  --- 5 message 32 [0 ffffffff c 800] ------- [12:255 -1:255 32 0] 
r 0.330303312 _8_ RTR  --- 5 message 32 [0 ffffffff c 800] ------- [12:255 -1:255 32 0] 
r 0.330303319 _13_ RTR  --- 5 message 32 [0 ffffffff c 800] ------- [12:255 -1:255 32 0] 
r 0.330303424 _7_ RTR  --- 5 message 32 [0 ffffffff c 800] ------- [12:255 -1:255 32 0] 
r 0.330303444 _15_ RTR  --- 5 message 32 [0 ffffffff c 800] ------- [12:255 -1:255 32 0] 
r 0.330303468 _9_ RTR  --- 5 message 32 [0 ffffffff c 800] ------- [12:255 -1:255 32 0] 
r 0.330303593 _14_ RTR  --- 5 message 32 [0 ffffffff c 800] ------- [12:255 -1:255 32 0] 
s 0.478666153 _8_ RTR  --- 6 message 32 [0 0 0 0] ------- [8:255 -1:255 32 0] 
s 0.479321153 _8_ MAC  --- 6 message 90 [0 ffffffff 8 800] ------- [8:255 -1:255 32 0] 
r 0.480041453 _9_ MAC  --- 6 message 32 [0 ffffffff 8 800] ------- [8:255 -1:255 32 0] 
r 0.480041517 _7_ MAC  --- 6 message 32 [0 ffffffff 8 800] ------- [8:255 -1:255 32 0] 
r 0.480041656 _5_ MAC  --- 6 message 32 [0 ffffffff 8 800] ------- [8:255 -1:255 32 0] 
r 0.480041668 _12_ MAC  --- 6 message 32 [0 ffffffff 8 800] ------- [8:255 -1:255 32 0] 
r 0.480041683 _1_ MAC  --- 6 message 32 [0 ffffffff 8 800] ------- [8:255 -1:255 32 0] 
r 0.480041778 _13_ MAC  --- 6 message 32 [0 ffffffff 8 800] ------- [8:255 -1:255 32 0] 
r 0.480041807 _10_ MAC  --- 6 message 32 [0 ffffffff 8 800] ------- [8:255 -1:255 32 0] 
r 0.480041830 _14_ MAC  --- 6 message 32 [0 ffffffff 8 800] ------- [8:255 -1:255 32 0] 
r 0.480041837 _15_ MAC  --- 6 message 32 [0 ffffffff 8 800] ------- [8:255 -1:255 32 0] 
r 0.480041964 _4_ MAC  --- 6 message 32 [0 ffffffff 8 800] ------- [8:255 -1:255 32 0] 
r 0.480066453 _9_ RTR  --- 6 message 32 [0 ffffffff 8 800] ------- [8:255 -1:255 32 0] 
r 0.480066517 _7_ RTR  --- 6 message 32 [0 ffffffff 8 800] ------- [8:255 -1:255 32 0] 
r 0.480066656 _5_ RTR  --- 6 message 32 [0 ffffffff 8 800] ------- [8:255 -1:255 32 0] 
r 0.480066668 _12_ RTR  --- 6 message 32 [0 ffffffff 8 800] ------- [8:255 -1:255 32 0] 
r 0.480066683 _1_ RTR  --- 6 message 32 [0 ffffffff 8 800] ------- [8:255 -1:255 32 0] 
r 0.480066778 _13_ RTR  --- 6 message 32 [0 ffffffff 8 800] ------- [8:255 -1:255 32 0] 
r 0.480066807 _10_ RTR  --- 6 message 32 [0 ffffffff 8 800] ------- [8:255 -1:255 32 0] 
r 0.480066830 _14_ RTR  --- 6 message 32 [0 ffffffff 8 800] ------- [8:255 -1:255 32 0] 
r 0.480066837 _15_ RTR  --- 6 message 32 [0 ffffffff 8 800] ------- [8:255 -1:255 32 0] 
r 0.480066964 _4_ RTR  --- 6 message 32 [0 ffffffff 8 800] ------- [8:255 -1:255 32 0] 
s 0.618266199 _10_ RTR  --- 7 message 32 [0 0 0 0] ------- [10:255 -1:255 32 0] 
s 0.618841199 _10_ MAC  --- 7 message 90 [0 ffffffff a 800] ------- [10:255 -1:255 32 0] 
r 0.619561495 _11_ MAC  --- 7 message 32 [0 ffffffff a 800] ------- [10:255 -1:255 32 0] 
r 0.619561558 _9_ MAC  --- 7 message 32 [0 ffffffff a 800] ------- [10:255 -1:255 32 0] 
r 0.619561579 _14_ MAC  --- 7 message 32 [0 ffffffff a 800] ------- [10:255 -1:255 32 0] 
r 0.619561659 _0_ MAC  --- 7 message 32 [0 ffffffff a 800] ------- [10:255 -1:255 32 0] 
r 0.619561761 _1_ MAC  --- 7 message 32 [0 ffffffff a 800] ------- [10:255 -1:255 32 0] 
r 0.619561852 _8_ MAC  --- 7 message 32 [0 ffffffff a 800] ------- [10:255 -1:255 32 0] 
r 0.619561861 _13_ MAC  --- 7 message 32 [0 ffffffff a 800] ------- [10:255 -1:255 32 0] 
r 0.619561989 _2_ MAC  --- 7 message 32 [0 ffffffff a 800] ------- [10:255 -1:255 32 0] 
r 0.619586495 _11_ RTR  --- 7 message 32 [0 ffffffff a 800] ------- [10:255 -1:255 32 0] 
r 0.619586558 _9_ RTR  --- 7 message 32 [0 ffffffff a 800] ------- [10:255 -1:255 32 0] 
r 0.619586579 _14_ RTR  --- 7 message 32 [0 ffffffff a 800] ------- [10:255 -1:255 32 0] 
r 0.619586659 _0_ RTR  --- 7 message 32 [0 ffffffff a 800] ------- [10:255 -1:255 32 0] 
r 0.619586761 _1_ RTR  --- 7 message 32 [0 ffffffff a 800] ------- [10:255 -1:255 32 0] 
r 0.619586852 _8_ RTR  --- 7 message 32 [0 ffffffff a 800] ------- [10:255 -1:255 32 0] 
r 0.619586861 _13_ RTR  --- 7 message 32 [0 ffffffff a 800] ------- [10:255 -1:255 32 0] 
r 0.619586989 _2_ RTR  --- 7 message 32 [0 ffffffff a 800] ------- [10:255 -1:255 32 0] 
s 0.632609782 _6_ RTR  --- 8 message 32 [0 0 0 0] ------- [6:255 -1:255 32 0] 
s 0.633164782 _6_ MAC  --- 8 message 90 [0 ffffffff 6 800] ------- [6:255 -1:255 32 0] 
r 0.633885264 _15_ MAC  --- 8 message 32 [0 ffffffff 6 800] ------- [6:255 -1:255 32 0] 
r 0.633885306 _7_ MAC  --- 8 message 32 [0 ffffffff 6 800] ------- [6:255 -1:255 32 0] 
r 0.633885346 _5_ MAC  --- 8 message 32 [0 ffffffff 6 800] ------- [6:255 -1:255 32 0] 
r 0.633885408 _4_ MAC  --- 8 message 32 [0 ffffffff 6 800] ------- [6:255 -1:255 32 0] 
r 0.633910264 _15_ RTR  --- 8 message 32 [0 ffffffff 6 800] ------- [6:255 -1:255 32 0] 
r 0.633910306 _7_ RTR  --- 8 message 32 [0 ffffffff 6 800] ------- [6:255 -1:255 32 0] 
r 0.633910346 _5_ RTR  --- 8 message 32 [0 ffffffff 6 800] ------- [6:255 -1:255 32 0] 
r 0.633910408 _4_ RTR  --- 8 message 32 [0 ffffffff 6 800] ------- [6:255 -1:255 32 0] 
s 0.891113321 _4_ RTR  --- 9 message 32 [0 0 0 0] ------- [4:255 -1:255 32 0] 
s 0.891348321 _4_ MAC  --- 9 message 90 [0 ffffffff 4 800] ------- [4:255 -1:255 32 0] 
r 0.892068638 _5_ MAC  --- 9 message 32 [0 ffffffff 4 800] ------- [4:255 -1:255 32 0] 
r 0.892068700 _3_ MAC  --- 9 message 32 [0 ffffffff 4 800] ------- [4:255 -1:255 32 0] 
r 0.892068937 _1_ MAC  --- 9 message 32 [0 ffffffff 4 800] ------- [4:255 -1:255 32 0] 
r 0.892068947 _6_ MAC  --- 9 message 32 [0 ffffffff 4 800] ------- [4:255 -1:255 32 0] 
r 0.892068962 _7_ MAC  --- 9 message 32 [0 ffffffff 4 800] ------- [4:255 -1:255 32 0] 
r 0.892069038 _2_ MAC  --- 9 message 32 [0 ffffffff 4 800] ------- [4:255 -1:255 32 0] 
r 0.892069132 _8_ MAC  --- 9 message 32 [0 ffffffff 4 800] ------- [4:255 -1:255 32 0] 
r 0.892093638 _5_ RTR  --- 9 message 32 [0 ffffffff 4 800] ------- [4:255 -1:255 32 0] 
r 0.892093700 _3_ RTR  --- 9 message 32 [0 ffffffff 4 800] ------- [4:255 -1:255 32 0] 
r 0.892093937 _1_ RTR  --- 9 message 32 [0 ffffffff 4 800] ------- [4:255 -1:255 32 0] 
r 0.892093947 _6_ RTR  --- 9 message 32 [0 ffffffff 4 800] ------- [4:255 -1:255 32 0] 
r 0.892093962 _7_ RTR  --- 9 message 32 [0 ffffffff 4 800] ------- [4:255 -1:255 32 0] 
r 0.892094038 _2_ RTR  --- 9 message 32 [0 ffffffff 4 800] ------- [4:255 -1:255 32 0] 
r 0.892094132 _8_ RTR  --- 9 message 32 [0 ffffffff 4 800] ------- [4:255 -1:255 32 0] 
s 1.000000000 _0_ AGT  --- 10 cbr 1000 [0 0 0 0] ------- [0:0 6:0 32 0] [0] 0 0
r 1.000000000 _0_ RTR  --- 10 cbr 1000 [0 0 0 0] ------- [0:0 6:0 32 0] [0] 0 0
s 1.000000000 _14_ AGT  --- 11 cbr 1000 [0 0 0 0] ------- [14:0 15:0 32 0] [0] 0 0
r 1.000000000 _14_ RTR  --- 11 cbr 1000 [0 0 0 0] ------- [14:0 15:0 32 0] [0] 0 0
s 1.050000000 _0_ AGT  --- 12 cbr 1000 [0 0 0 0] ------- [0:0 6:0 32 0] [1] 0 0
r 1.050000000 _0_ RTR  --- 12 cbr 1000 [0 0 0 0] ------- [0:0 6:0 32 0] [1] 0 0
s 1.050000000 _14_ AGT  --- 13 cbr 1000 [0 0 0 0] ------- [14:0 15:0 32 0] [1] 0 0
r 1.050000000 _14_ RTR  --- 13 cbr 1000 [0 0 0 0] ------- [14:0 15:0 32 0] [1] 0 0
s 1.100000000 _0_ AGT  --- 14 cbr 1000 [0 0 0 0] ------- [0:0 6:0 32 0] [2] 0 0
r 1.100000000 _0_ RTR  --- 14 cbr 1000 [0 0 0 0] ------- [0:0 6:0 32 0] [2] 0 0
s 1.100000000 _14_ AGT  --- 15 cbr 1000 [0 0 0 0] ------- [14:0 15:0 32 0] [2] 0 0
r 1.100000000 _14_ RTR  --- 15 cbr 1000 [0 0 0 0] ------- [14:0 15:0 32 0] [2] 0 0
s 1.112037007 _1_ RTR  --- 16 message 32 [0 0 0 0] ------- [1:255 -1:255 32 0] 
s 1.112112007 _1_ MAC  --- 16 message 90 [0 ffffffff 1 800] ------- [1:255 -1:255 32 0] 
r 1.112832405 _2_ MAC  --- 16 message 32 [0 ffffffff 1 800] ------- [1:255 -1:255 32 0] 
r 1.112832422 _3_ MAC  --- 16 message 32 [0 ffffffff 1 800] ------- [1:255 -1:255 32 0] 
r 1.112832483 _9_ MAC  --- 16 message 32 [0 ffffffff 1 800] ------- [1:255 -1:255 32 0] 
r 1.112832493 _0_ MAC  --- 16 message 32 [0 ffffffff 1 800] ------- [1:255 -1:255 32 0] 
r 1.112832494 _5_ MAC  --- 16 message 32 [0 ffffffff 1 800] ------- [1:255 -1:255 32 0] 
r 1.112832536 _8_ MAC  --- 16 message 32 [0 ffffffff 1 800] ------- [1:255 -1:255 32 0] 
r 1.112832568 _10_ MAC  --- 16 message 32 [0 ffffffff 1 800] ------- [1:255 -1:255 32 0] 
r 1.112832623 _4_ MAC  --- 16 message 32 [0 ffffffff 1 800] ------- [1:255 -1:255 32 0] 
r 1.112832682 _11_ MAC  --- 16 message 32 [0 ffffffff 1 800] ------- [1:255 -1:255 32 0] 
r 1.112832697 _7_ MAC  --- 16 message 32 [0 ffffffff 1 800] ------- [1:255 -1:255 32 0] 
r 1.112857405 _2_ RTR  --- 16 message 32 [0 ffffffff 1 800] ------- [1:255 -1:255 32 0] 
r 1.112857422 _3_ RTR  --- 16 message 32 [0 ffffffff 1 800] ------- [1:255 -1:255 32 0] 
r 1.112857483 _9_ RTR  --- 16 message 32 [0 ffffffff 1 800] ------- [1:255 -1:255 32 0] 
r 1.112857493 _0_ RTR  --- 16 message 32 [0 ffffffff 1 800] ------- [1:255 -1:255 32 0] 
r 1.112857494 _5_ RTR  --- 16 message 32 [0 ffffffff 1 800] ------- [1:255 -1:255 32 0] 
r 1.112857536 _8_ RTR  --- 16 message 32 [0 ffffffff 1 800] ------- [1:255 -1:255 32 0] 
r 1.112857568 _10_ RTR  --- 16 message 32 [0 ffffffff 1 800] ------- [1:255 -1:255 32 0] 
r 1.112857623 _4_ RTR  --- 16 message 32 [0 ffffffff 1 800] ------- [1:255 -1:255 32 0] 
r 1.112857682 _11_ RTR  --- 16 message 32 [0 ffffffff 1 800] ------- [1:255 -1:255 32 0] 
r 1.112857697 _7_ RTR  --- 16 message 32 [0 ffffffff 1 800] ------- [1:255 -1:255 32 0] 
s 1.150000000 _0_ AGT  --- 17 cbr 1000 [0 0 0 0] ------- [0:0 6:0 32 0] [3] 0 0
r 1.150000000 _0_ RTR  --- 17 cbr 1000 [0 0 0 0] ------- [0:0 6:0 32 0] [3] 0 0
s 1.150000000 _14_ AGT  --- 18 cbr 1000 [0 0 0 0] ------- [14:0 15:0 32 0] [3] 0 0
r 1.150000000 _14_ RTR  --- 18 cbr 1000 [0 0 0 0] ------- [14:0 15:0 32 0] [3] 0 0
s 1.200000000 _0_ AGT  --- 19 cbr 1000 [0 0 0 0] ------- [0:0 6:0 32 0] [4] 0 0
r 1.200000000 _0_ RTR  --- 19 cbr 1000 [0 0 0 0] ------- [0:0 6:0 32 0] [4] 0 0
s 1.200000000 _14_ AGT  --- 20 cbr 1000 [0 0 0 0] ------- [14:0 15:0 32 0] [4] 0 0
r 1.200000000 _14_ RTR  --- 20 cbr 1000 [0 0 0 0] ------- [14:0 15:0 32 0] [4] 0 0
s 1.250000000 _0_ AGT  --- 21 cbr 1000 [0 0 0 0] ------- [0:0 6:0 32 0] [5] 0 0
r 1.250000000 _0_ RTR  --- 21 cbr 1000 [0 0 0 0] ------- [0:0 6:0 32 0] [5] 0 0
D 1.250000000 _0_ RTR  IFQ 10 cbr 1020 [0 0 0 0] ------- [0:0 6:0 32 0] [0] 0 0
s 1.250000000 _14_ AGT  --- 22 cbr 1000 [0 0 0 0] ------- [14:0 15:0 32 0] [5] 0 0
r 1.250000000 _14_ RTR  --- 22 cbr 1000 [0 0 0 0] ------- [14:0 15:0 32 0] [5] 0 0
D 1.250000000 _14_ RTR  IFQ 11 cbr 1020 [0 0 0 0] ------- [14:0 15:0 32 0] [0] 0 0
s 1.282202659 _14_ RTR  --- 24 message 32 [0 0 0 0] ------- [14:255 -1:255 32 0] 
s 1.282517659 _14_ MAC  --- 24 message 90 [0 ffffffff e 800] ------- [14:255 -1:255 32 0] 
r 1.283237990 _13_ MAC  --- 24 message 32 [0 ffffffff e 800] ------- [14:255 -1:255 32 0] 
r 1.283238039 _10_ MAC  --- 24 message 32 [0 ffffffff e 800] ------- [14:255 -1:255 32 0] 
r 1.283238085 _9_ MAC  --- 24 message 32 [0 ffffffff e 800] ------- [14:255 -1:255 32 0] 
r 1.283238279 _11_ MAC  --- 24 message 32 [0 ffffffff e 800] ------- [14:255 -1:255 32 0] 
r 1.283238335 _8_ MAC  --- 24 message 32 [0 ffffffff e 800] ------- [14:255 -1:255 32 0] 
r 1.283238454 _12_ MAC  --- 24 message 32 [0 ffffffff e 800] ------- [14:255 -1:255 32 0] 
r 1.283262990 _13_ RTR  --- 24 message 32 [0 ffffffff e 800] ------- [14:255 -1:255 32 0] 
r 1.283263039 _10_ RTR  --- 24 message 32 [0 ffffffff e 800] ------- [14:255 -1:255 32 0] 
r 1.283263085 _9_ RTR  --- 24 message 32 [0 ffffffff e 800] ------- [14:255 -1:255 32 0] 
r 1.283263279 _11_ RTR  --- 24 message 32 [0 ffffffff e 800] ------- [14:255 -1:255 32 0] 
r 1.283263335 _8_ RTR  --- 24 message 32 [0 ffffffff e 800] ------- [14:255 -1:255 32 0] 
r 1.283263454 _12_ RTR  --- 24 message 32 [0 ffffffff e 800] ------- [14:255 -1:255 32 0] 
s 1.287198448 _9_ RTR  --- 23 message 32 [0 0 0 0] ------- [9:255 -1:255 32 0] 
s 1.287573448 _9_ MAC  --- 23 message 90 [0 ffffffff 9 800] ------- [9:255 -1:255 32 0] 
r 1.288293748 _8_ MAC  --- 23 message 32 [0 ffffffff 9 800] ------- [9:255 -1:255 32 0] 
r 1.288293807 _10_ MAC  --- 23 message 32 [0 ffffffff 9 800] ------- [9:255 -1:255 32 0] 
r 1.288293875 _14_ MAC  --- 23 message 32 [0 ffffffff 9 800] ------- [9:255 -1:255 32 0] 
r 1.288293925 _1_ MAC  --- 23 message 32 [0 ffffffff 9 800] ------- [9:255 -1:255 32 0] 
r 1.288293962 _13_ MAC  --- 23 message 32 [0 ffffffff 9 800] ------- [9:255 -1:255 32 0] 
r 1.288294090 _11_ MAC  --- 23 message 32 [0 ffffffff 9 800] ------- [9:255 -1:255 32 0] 
r 1.288294104 _7_ MAC  --- 23 message 32 [0 ffffffff 9 800] ------- [9:255 -1:255 32 0] 
r 1.288294119 _12_ MAC  --- 23 message 32 [0 ffffffff 9 800] ------- [9:255 -1:255 32 0] 
r 1.288294134 _0_ MAC  --- 23 message 32 [0 ffffffff 9 800] ------- [9:255 -1:255 32 0] 
r 1.288294149 _5_ MAC  --- 23 message 32 [0 ffffffff 9 800] ------- [9:255 -1:255 32 0] 
r 1.288318748 _8_ RTR  --- 23 message 32 [0 ffffffff 9 800] ------- [9:255 -1:255 32 0] 
r 1.288318807 _10_ RTR  --- 23 message 32 [0 ffffffff 9 800] ------- [9:255 -1:255 32 0] 
r 1.288318875 _14_ RTR  --- 23 message 32 [0 ffffffff 9 800] ------- [9:255 -1:255 32 0] 
r 1.288318925 _1_ RTR  --- 23 message 32 [0 ffffffff 9 800] ------- [9:255 -1:255 32 0] 
r 1.288318962 _13_ RTR  --- 23 message 32 [0 ffffffff 9 800] ------- [9:255 -1:255 32 0] 
r 1.288319090 _11_ RTR  --- 23 message 32 [0 ffffffff 9 800] ------- [9:255 -1:255 32 0] 
r 1.288319104 _7_ RTR  --- 23 message 32 [0 ffffffff 9 800] ------- [9:255 -1:255 32 0] 
r 1.288319119 _12_ RTR  --- 23 message 32 [0 ffffffff 9 800] ------- [9:255 -1:255 32 0] 
r 1.288319134 _0_ RTR  --- 23 message 32 [0 ffffffff 9 800] ------- [9:255 -1:255 32 0] 
r 1.288319149 _5_ RTR  --- 23 message 32 [0 ffffffff 9 800] ------- [9:255 -1:255 32 0] 
s 1.300000000 _0_ AGT  --- 25 cbr 1000 [0 0 0 0] ------- [0:0 6:0 32 0] [6] 0 0
r 1.300000000 _0_ RTR  --- 25 cbr 1000 [0 0 0 0] ------- [0:0 6:0 32 0] [6] 0 0
D 1.300000000 _0_ RTR  IFQ 12 cbr 1020 [0 0 0 0] ------- [0:0 6:0 32 0] [1] 0 0
s 1.300000000 _14_ AGT  --- 26 cbr 1000 [0 0 0 0] ------- [14:0 15:0 32 0] [6] 0 0
r 1.300000000 _14_ RTR  --- 26 cbr 1000 [0 0 0 0] ------- [14:0 15:0 32 0] [6] 0 0
D 1.300000000 _14_ RTR  IFQ 13 cbr 1020 [0 0 0 0] ------- [14:0 15:0 32 0] [1] 0 0
s 1.350000000 _0_ AGT  --- 27 cbr 1000 [0 0 0 0] ------- [0:0 6:0 32 0] [7] 0 0
r 1.350000000 _0_ RTR  --- 27 cbr 1000 [0 0 0 0] ------- [0:0 6:0 32 0] [7] 0 0
D 1.350000000 _0_ RTR  IFQ 14 cbr 1020 [0 0 0 0] ------- [0:0 6:0 32 0] [2] 0 0
s 1.350000000 _14_ AGT  --- 28 cbr 1000 [0 0 0 0] ------- [14:0 15:0 32 0] [7] 0 0
r 1.350000000 _14_ RTR  --- 28 cbr 1000 [0 0 0 0] ------- [14:0 15:0 32 0] [7] 0 0
D 1.350000000 _14_ RTR  IFQ 15 cbr 1020 [0 0 0 0] ------- [14:0 15:0 32 0] [2] 0 0
s 1.400000000 _0_ AGT  --- 29 cbr 1000 [0 0 0 0] ------- [0:0 6:0 32 0] [8] 0 0
r 1.400000000 _0_ RTR  --- 29 cbr 1000 [0 0 0 0] ------- [0:0 6:0 32 0] [8] 0 0
D 1.400000000 _0_ RTR  IFQ 17 cbr 1020 [0 0 0 0] ------- [0:0 6:0 32 0] [3] 0 0
s 1.400000000 _14_ AGT  --- 30 cbr 1000 [0 0 0 0] ------- [14:0 15:0 32 0] [8] 0 0
r 1.400000000 _14_ RTR  --- 30 cbr 1000 [0 0 0 0] ------- [14:0 15:0 32 0] [8] 0 0
D 1.400000000 _14_ RTR  IFQ 18 cbr 1020 [0 0 0 0] ------- [14:0 15:0 32 0] [3] 0 0
s 1.450000000 _0_ AGT  --- 31 cbr 1000 [0 0 0 0] ------- [0:0 6:0 32 0] [9] 0 0
r 1.450000000 _0_ RTR  --- 31 cbr 1000 [0 0 0 0] ------- [0:0 6:0 32 0] [9] 0 0
D 1.450000000 _0_ RTR  IFQ 19 cbr 1020 [0 0 0 0] ------- [0:0 6:0 32 0] [4] 0 0
s 1.450000000 _14_ AGT  --- 32 cbr 1000 [0 0 0 0] ------- [14:0 15:0 32 0] [9] 0 0
r 1.450000000 _14_ RTR  --- 32 cbr 1000 [0 0 0 0] ------- [14:0 15:0 32 0] [9] 0 0
D 1.450000000 _14_ RTR  IFQ 20 cbr 1020 [0 0 0 0] ------- [14:0 15:0 32 0] [4] 0 0
s 1.500000000 _0_ AGT  --- 33 cbr 1000 [0 0 0 0] ------- [0:0 6:0 32 0] [10] 0 0
r 1.500000000 _0_ RTR  --- 33 cbr 1000 [0 0 0 0] ------- [0:0 6:0 32 0] [10] 0 0
D 1.500000000 _0_ RTR  IFQ 21 cbr 1020 [0 0 0 0] ------- [0:0 6:0 32 0] [5] 0 0
s 1.500000000 _14_ AGT  --- 34 cbr 1000 [0 0 0 0] ------- [14:0 15:0 32 0] [10] 0 0
r 1.500000000 _14_ RTR  --- 34 cbr 1000 [0 0 0 0] ------- [14:0 15:0 32 0] [10] 0 0
D 1.500000000 _14_ RTR  IFQ 22 cbr 1020 [0 0 0 0] ------- [14:0 15:0 32 0] [5] 0 0
s 1.550000000 _0_ AGT  --- 35 cbr 1000 [0 0 0 0] ------- [0:0 6:0 32 0] [11] 0 0
r 1.550000000 _0_ RTR  --- 35 cbr 1000 [0 0 0 0] ------- [0:0 6:0 32 0] [11] 0 0
D 1.550000000 _0_ RTR  IFQ 25 cbr 1020 [0 0 0 0] ------- [0:0 6:0 32 0] [6] 0 0
s 1.550000000 _14_ AGT  --- 36 cbr 1000 [0 0 0 0] ------- [14:0 15:0 32 0] [11] 0 0
r 1.550000000 _14_ RTR  --- 36 cbr 1000 [0 0 0 0] ------- [14:0 15:0 32 0] [11] 0 0
D 1.550000000 _14_ RTR  IFQ 26 cbr 1020 [0 0 0 0] ------- [14:0 15:0 32 0] [6] 0 0
s 1.598812241 _5_ RTR  --- 37 message 32 [0 0 0 0] ------- [5:255 -1:255 32 0] 
s 1.599087241 _5_ MAC  --- 37 message 90 [0 ffffffff 5 800] ------- [5:255 -1:255 32 0] 
r 1.599807559 _4_ MAC  --- 37 message 32 [0 ffffffff 5 800] ------- [5:255 -1:255 32 0] 
r 1.599807586 _7_ MAC  --- 37 message 32 [0 ffffffff 5 800] ------- [5:255 -1:255 32 0] 
r 1.599807729 _1_ MAC  --- 37 message 32 [0 ffffffff 5 800] ------- [5:255 -1:255 32 0] 
r 1.599807744 _8_ MAC  --- 37 message 32 [0 ffffffff 5 800] ------- [5:255 -1:255 32 0] 
r 1.599807748 _3_ MAC  --- 37 message 32 [0 ffffffff 5 800] ------- [5:255 -1:255 32 0] 
r 1.599807804 _6_ MAC  --- 37 message 32 [0 ffffffff 5 800] ------- [5:255 -1:255 32 0] 
r 1.599807929 _15_ MAC  --- 37 message 32 [0 ffffffff 5 800] ------- [5:255 -1:255 32 0] 
r 1.599807941 _9_ MAC  --- 37 message 32 [0 ffffffff 5 800] ------- [5:255 -1:255 32 0] 
r 1.599808001 _2_ MAC  --- 37 message 32 [0 ffffffff 5 800] ------- [5:255 -1:255 32 0] 
r 1.599832559 _4_ RTR  --- 37 message 32 [0 ffffffff 5 800] ------- [5:255 -1:255 32 0] 
r 1.599832586 _7_ RTR  --- 37 message 32 [0 ffffffff 5 800] ------- [5:255 -1:255 32 0] 
r 1.599832729 _1_ RTR  --- 37 message 32 [0 ffffffff 5 800] ------- [5:255 -1:255 32 0] 
r 1.599832744 _8_ RTR  --- 37 message 32 [0 ffffffff 5 800] ------- [5:255 -1:255 32 0] 
r 1.599832748 _3_ RTR  --- 37 message 32 [0 ffffffff 5 800] ------- [5:255 -1:255 32 0] 
r 1.599832804 _6_ RTR  --- 37 message 32 [0 ffffffff 5 800] ------- [5:255 -1:255 32 0] 
r 1.599832929 _15_ RTR  --- 37 message 32 [0 ffffffff 5 800] ------- [5:255 -1:255 32 0] 
r 1.599832941 _9_ RTR  --- 37 message 32 [0 ffffffff 5 800] ------- [5:255 -1:255 32 0] 
r 1.599833001 _2_ RTR  --- 37 message 32 [0 ffffffff 5 800] ------- [5:255 -1:255 32 0] 
s 1.600000000 _0_ AGT  --- 38 cbr 1000 [0 0 0 0] ------- [0:0 6:0 32 0] [12] 0 0
r 1.600000000 _0_ RTR  --- 38 cbr 1000 [0 0 0 0] ------- [0:0 6:0 32 0] [12] 0 0
D 1.600000000 _0_ RTR  IFQ 27 cbr 1020 [0 0 0 0] ------- [0:0 6:0 32 0] [7] 0 0
s 1.600000000 _14_ AGT  --- 39 cbr 1000 [0 0 0 0] ------- [14:0 15:0 32 0] [12] 0 0
r 1.600000000 _14_ RTR  --- 39 cbr 1000 [0 0 0 0] ------- [14:0 15:0 32 0] [12] 0 0
D 1.600000000 _14_ RTR  IFQ 28 cbr 1020 [0 0 0 0] ------- [14:0 15:0 32 0] [7] 0 0
s 1.637164303 _7_ RTR  --- 40 message 32 [0 0 0 0] ------- [7:255 -1:255 32 0] 
s 1.637439303 _7_ MAC  --- 40 message 90 [0 ffffffff 7 800] ------- [7:255 -1:255 32 0] 
r 1.638159648 _5_ MAC  --- 40 message 32 [0 ffffffff 7 800] ------- [7:255 -1:255 32 0] 
r 1.638159667 _8_ MAC  --- 40 message 32 [0 ffffffff 7 800] ------- [7:255 -1:255 32 0] 
r 1.638159693 _15_ MAC  --- 40 message 32 [0 ffffffff 7 800] ------- [7:255 -1:255 32 0] 
r 1.638159827 _6_ MAC  --- 40 message 32 [0 ffffffff 7 800] ------- [7:255 -1:255 32 0] 
r 1.638159929 _12_ MAC  --- 40 message 32 [0 ffffffff 7 800] ------- [7:255 -1:255 32 0] 
r 1.638159945 _4_ MAC  --- 40 message 32 [0 ffffffff 7 800] ------- [7:255 -1:255 32 0] 
r 1.638159959 _9_ MAC  --- 40 message 32 [0 ffffffff 7 800] ------- [7:255 -1:255 32 0] 
r 1.638159994 _1_ MAC  --- 40 message 32 [0 ffffffff 7 800] ------- [7:255 -1:255 32 0] 
r 1.638184648 _5_ RTR  --- 40 message 32 [0 ffffffff 7 800] ------- [7:255 -1:255 32 0] 
r 1.638184667 _8_ RTR  --- 40 message 32 [0 ffffffff 7 800] ------- [7:255 -1:255 32 0] 
r 1.638184693 _15_ RTR  --- 40 message 32 [0 ffffffff 7 800] ------- [7:255 -1:255 32 0] 
r 1.638184827 _6_ RTR  --- 40 message 32 [0 ffffffff 7 800] ------- [7:255 -1:255 32 0] 
r 1.638184929 _12_ RTR  --- 40 message 32 [0 ffffffff 7 800] ------- [7:255 -1:255 32 0] 
r 1.638184945 _4_ RTR  --- 40 message 32 [0 ffffffff 7 800] ------- [7:255 -1:255 32 0] 
r 1.638184959 _9_ RTR  --- 40 message 32 [0 ffffffff 7 800] ------- [7:255 -1:255 32 0] 
r 1.638184994 _1_ RTR  --- 40 message 32 [0 ffffffff 7 800] ------- [7:255 -1:255 32 0] 
s 1.650000000 _0_ AGT  --- 41 cbr 1000 [0 0 0 0] ------- [0:0 6:0 32 0] [13] 0 0
r 1.650000000 _0_ RTR  --- 41 cbr 1000 [0 0 0 0] ------- [0:0 6:0 32 0] [13] 0 0
D 1.650000000 _0_ RTR  IFQ 29 cbr 1020 [0 0 0 0] ------- [0:0 6:0 32 0] [8] 0 0
s 1.650000000 _14_ AGT  --- 42 cbr 1000 [0 0 0 0] ------- [14:0 15:0 32 0] [13] 0 0
r 1.650000000 _14_ RTR  --- 42 cbr 1000 [0 0 0 0] ------- [14:0 15:0 32 0] [13] 0 0
D 1.650000000 _14_ RTR  IFQ 30 cbr 1020 [0 0 0 0] ------- [14:0 15:0 32 0] [8] 0 0
s 1.679927492 _11_ RTR  --- 43 message 32 [0 0 0 0] ------- [11:255 -1:255 32 0] 
s 1.680122492 _11_ MAC  --- 43 message 90 [0 ffffffff b 800] ------- [11:255 -1:255 32 0] 
r 1.680842787 _10_ MAC  --- 43 message 32 [0 ffffffff b 800] ------- [11:255 -1:255 32 0] 
r 1.680842810 _0_ MAC  --- 43 message 32 [0 ffffffff b 800] ------- [11:255 -1:255 32 0] 
r 1.680843112 _14_ MAC  --- 43 message 32 [0 ffffffff b 800] ------- [11:255 -1:255 32 0] 
r 1.680843133 _9_ MAC  --- 43 message 32 [0 ffffffff b 800] ------- [11:255 -1:255 32 0] 
r 1.680843167 _1_ MAC  --- 43 message 32 [0 ffffffff b 800] ------- [11:255 -1:255 32 0] 
r 1.680843240 _2_ MAC  --- 43 message 32 [0 ffffffff b 800] ------- [11:255 -1:255 32 0] 
r 1.680867787 _10_ RTR  --- 43 message 32 [0 ffffffff b 800] ------- [11:255 -1:255 32 0] 
r 1.680867810 _0_ RTR  --- 43 message 32 [0 ffffffff b 800] ------- [11:255 -1:255 32 0] 
r 1.680868112 _14_ RTR  --- 43 message 32 [0 ffffffff b 800] ------- [11:255 -1:255 32 0] 
r 1.680868133 _9_ RTR  --- 43 message 32 [0 ffffffff b 800] ------- [11:255 -1:255 32 0] 
r 1.680868167 _1_ RTR  --- 43 message 32 [0 ffffffff b 800] ------- [11:255 -1:255 32 0] 
r 1.680868240 _2_ RTR  --- 43 message 32 [0 ffffffff b 800] ------- [11:255 -1:255 32 0] 
s 1.700000000 _0_ AGT  --- 44 cbr 1000 [0 0 0 0] ------- [0:0 6:0 32 0] [14] 0 0
r 1.700000000 _0_ RTR  --- 44 cbr 1000 [0 0 0 0] ------- [0:0 6:0 32 0] [14] 0 0
D 1.700000000 _0_ RTR  IFQ 31 cbr 1020 [0 0 0 0] ------- [0:0 6:0 32 0] [9] 0 0
s 1.700000000 _14_ AGT  --- 45 cbr 1000 [0 0 0 0] ------- [14:0 15:0 32 0] [14] 0 0
r 1.700000000 _14_ RTR  --- 45 cbr 1000 [0 0 0 0] ------- [14:0 15:0 32 0] [14] 0 0
D 1.700000000 _14_ RTR  IFQ 32 cbr 1020 [0 0 0 0] ------- [14:0 15:0 32 0] [9] 0 0
s 1.750000000 _0_ AGT  --- 46 cbr 1000 [0 0 0 0] ------- [0:0 6:0 32 0] [15] 0 0
r 1.750000000 _0_ RTR  --- 46 cbr 1000 [0 0 0 0] ------- [0:0 6:0 32 0] [15] 0 0
D 1.750000000 _0_ RTR  IFQ 33 cbr 1020 [0 0 0 0] ------- [0:0 6:0 32 0] [10] 0 0
s 1.750000000 _14_ AGT  --- 47 cbr 1000 [0 0 0 0] ------- [14:0 15:0 32 0] [15] 0 0
r 1.750000000 _14_ RTR  --- 47 cbr 1000 [0 0 0 0] ------- [14:0 15:0 32 0] [15] 0 0
D 1.750000000 _14_ RTR  IFQ 34 cbr 1020 [0 0 0 0] ------- [14:0 15:0 32 0] [10] 0 0
s 1.800000000 _0_ AGT  --- 48 cbr 1000 [0 0 0 0] ------- [0:0 6:0 32 0] [16] 0 0
r 1.800000000 _0_ RTR  --- 48 cbr 1000 [0 0 0 0] ------- [0:0 6:0 32 0] [16] 0 0
D 1.800000000 _0_ RTR  IFQ 35 cbr 1020 [0 0 0 0] ------- [0:0 6:0 32 0] [11] 0 0