s 0.003769945 _0_ RTR  --- 0 message 32 [0 0 0 0] ------- [0:255 -1:255 32 0] 
s 0.003884945 _0_ MAC  --- 0 message 90 [0 ffffffff 0 800] ------- [0:255 -1:255 32 0] 
r 0.004605657 _1_ MAC  --- 0 message 32 [0 ffffffff 0 800] ------- [0:255 -1:255 32 0] 
r 0.004605705 _4_ MAC  --- 0 message 32 [0 ffffffff 0 800] ------- [0:255 -1:255 32 0] 
r 0.004605771 _3_ MAC  --- 0 message 32 [0 ffffffff 0 800] ------- [0:255 -1:255 32 0] 
r 0.004630657 _1_ RTR  --- 0 message 32 [0 ffffffff 0 800] ------- [0:255 -1:255 32 0] 
r 0.004630705 _4_ RTR  --- 0 message 32 [0 ffffffff 0 800] ------- [0:255 -1:255 32 0] 
r 0.004630771 _3_ RTR  --- 0 message 32 [0 ffffffff 0 800] ------- [0:255 -1:255 32 0] 
s 0.034809998 _2_ RTR  --- 1 message 32 [0 0 0 0] ------- [2:255 -1:255 32 0] 
s 0.035124998 _2_ MAC  --- 1 message 90 [0 ffffffff 2 800] ------- [2:255 -1:255 32 0] 
r 0.035845614 _5_ MAC  --- 1 message 32 [0 ffffffff 2 800] ------- [2:255 -1:255 32 0] 
r 0.035845713 _4_ MAC  --- 1 message 32 [0 ffffffff 2 800] ------- [2:255 -1:255 32 0] 
r 0.035845736 _7_ MAC  --- 1 message 32 [0 ffffffff 2 800] ------- [2:255 -1:255 32 0] 
r 0.035845768 _1_ MAC  --- 1 message 32 [0 ffffffff 2 800] ------- [2:255 -1:255 32 0] 
r 0.035870614 _5_ RTR  --- 1 message 32 [0 ffffffff 2 800] ------- [2:255 -1:255 32 0] 
r 0.035870713 _4_ RTR  --- 1 message 32 [0 ffffffff 2 800] ------- [2:255 -1:255 32 0] 
r 0.035870736 _7_ RTR  --- 1 message 32 [0 ffffffff 2 800] ------- [2:255 -1:255 32 0] 
r 0.035870768 _1_ RTR  --- 1 message 32 [0 ffffffff 2 800] ------- [2:255 -1:255 32 0] 
s 0.177993395 _3_ RTR  --- 2 message 32 [0 0 0 0] ------- [3:255 -1:255 32 0] 
s 0.178388395 _3_ MAC  --- 2 message 90 [0 ffffffff 3 800] ------- [3:255 -1:255 32 0] 
r 0.179109169 _4_ MAC  --- 2 message 32 [0 ffffffff 3 800] ------- [3:255 -1:255 32 0] 
r 0.179109218 _6_ MAC  --- 2 message 32 [0 ffffffff 3 800] ------- [3:255 -1:255 32 0] 
r 0.179109221 _0_ MAC  --- 2 message 32 [0 ffffffff 3 800] ------- [3:255 -1:255 32 0] 
r 0.179134169 _4_ RTR  --- 2 message 32 [0 ffffffff 3 800] ------- [3:255 -1:255 32 0] 
r 0.179134218 _6_ RTR  --- 2 message 32 [0 ffffffff 3 800] ------- [3:255 -1:255 32 0] 
r 0.179134221 _0_ RTR  --- 2 message 32 [0 ffffffff 3 800] ------- [3:255 -1:255 32 0] 
s 0.471784383 _8_ RTR  --- 3 message 32 [0 0 0 0] ------- [8:255 -1:255 32 0] 
s 0.472099383 _8_ MAC  --- 3 message 90 [0 ffffffff 8 800] ------- [8:255 -1:255 32 0] 
r 0.472819977 _9_ MAC  --- 3 message 32 [0 ffffffff 8 800] ------- [8:255 -1:255 32 0] 
r 0.472820039 _5_ MAC  --- 3 message 32 [0 ffffffff 8 800] ------- [8:255 -1:255 32 0] 
r 0.472820103 _7_ MAC  --- 3 message 32 [0 ffffffff 8 800] ------- [8:255 -1:255 32 0] 
r 0.472820111 _6_ MAC  --- 3 message 32 [0 ffffffff 8 800] ------- [8:255 -1:255 32 0] 
r 0.472844977 _9_ RTR  --- 3 message 32 [0 ffffffff 8 800] ------- [8:255 -1:255 32 0] 
r 0.472845039 _5_ RTR  --- 3 message 32 [0 ffffffff 8 800] ------- [8:255 -1:255 32 0] 
r 0.472845103 _7_ RTR  --- 3 message 32 [0 ffffffff 8 800] ------- [8:255 -1:255 32 0] 
r 0.472845111 _6_ RTR  --- 3 message 32 [0 ffffffff 8 800] ------- [8:255 -1:255 32 0] 
s 0.500000000 _0_ AGT  --- 4 cbr 1000 [0 0 0 0] ------- [0:0 7:0 32 0] [0] 0 0
r 0.500000000 _0_ RTR  --- 4 cbr 1000 [0 0 0 0] ------- [0:0 7:0 32 0] [0] 0 0
s 0.500000000 _3_ AGT  --- 5 cbr 1000 [0 0 0 0] ------- [3:0 9:0 32 0] [0] 0 0
r 0.500000000 _3_ RTR  --- 5 cbr 1000 [0 0 0 0] ------- [3:0 9:0 32 0] [0] 0 0
s 0.550000000 _0_ AGT  --- 6 cbr 1000 [0 0 0 0] ------- [0:0 7:0 32 0] [1] 0 0
r 0.550000000 _0_ RTR  --- 6 cbr 1000 [0 0 0 0] ------- [0:0 7:0 32 0] [1] 0 0
s 0.550000000 _3_ AGT  --- 7 cbr 1000 [0 0 0 0] ------- [3:0 9:0 32 0] [1] 0 0
r 0.550000000 _3_ RTR  --- 7 cbr 1000 [0 0 0 0] ------- [3:0 9:0 32 0] [1] 0 0
s 0.600000000 _0_ AGT  --- 8 cbr 1000 [0 0 0 0] ------- [0:0 7:0 32 0] [2] 0 0
r 0.600000000 _0_ RTR  --- 8 cbr 1000 [0 0 0 0] ------- [0:0 7:0 32 0] [2] 0 0
s 0.600000000 _3_ AGT  --- 9 cbr 1000 [0 0 0 0] ------- [3:0 9:0 32 0] [2] 0 0
r 0.600000000 _3_ RTR  --- 9 cbr 1000 [0 0 0 0] ------- [3:0 9:0 32 0] [2] 0 0
s 0.632846612 _6_ RTR  --- 10 message 32 [0 0 0 0] ------- [6:255 -1:255 32 0] 
s 0.633321612 _6_ MAC  --- 10 message 90 [0 ffffffff 6 800] ------- [6:255 -1:255 32 0] 
r 0.634042339 _8_ MAC  --- 10 message 32 [0 ffffffff 6 800] ------- [6:255 -1:255 32 0] 
r 0.634042365 _5_ MAC  --- 10 message 32 [0 ffffffff 6 800] ------- [6:255 -1:255 32 0] 
r 0.634042435 _3_ MAC  --- 10 message 32 [0 ffffffff 6 800] ------- [6:255 -1:255 32 0] 
r 0.634067339 _8_ RTR  --- 10 message 32 [0 ffffffff 6 800] ------- [6:255 -1:255 32 0] 
r 0.634067365 _5_ RTR  --- 10 message 32 [0 ffffffff 6 800] ------- [6:255 -1:255 32 0] 
r 0.634067435 _3_ RTR  --- 10 message 32 [0 ffffffff 6 800] ------- [6:255 -1:255 32 0] 
s 0.650000000 _0_ AGT  --- 11 cbr 1000 [0 0 0 0] ------- [0:0 7:0 32 0] [3] 0 0
r 0.650000000 _0_ RTR  --- 11 cbr 1000 [0 0 0 0] ------- [0:0 7:0 32 0] [3] 0 0
s 0.650000000 _3_ AGT  --- 12 cbr 1000 [0 0 0 0] ------- [3:0 9:0 32 0] [3] 0 0
r 0.650000000 _3_ RTR  --- 12 cbr 1000 [0 0 0 0] ------- [3:0 9:0 32 0] [3] 0 0
s 0.700000000 _0_ AGT  --- 13 cbr 1000 [0 0 0 0] ------- [0:0 7:0 32 0] [4] 0 0
r 0.700000000 _0_ RTR  --- 13 cbr 1000 [0 0 0 0] ------- [0:0 7:0 32 0] [4] 0 0
s 0.700000000 _3_ AGT  --- 14 cbr 1000 [0 0 0 0] ------- [3:0 9:0 32 0] [4] 0 0
r 0.700000000 _3_ RTR  --- 14 cbr 1000 [0 0 0 0] ------- [3:0 9:0 32 0] [4] 0 0
s 0.750000000 _0_ AGT  --- 15 cbr 1000 [0 0 0 0] ------- [0:0 7:0 32 0] [5] 0 0
r 0.750000000 _0_ RTR  --- 15 cbr 1000 [0 0 0 0] ------- [0:0 7:0 32 0] [5] 0 0
D 0.750000000 _0_ RTR  IFQ 4 cbr 1020 [0 0 0 0] ------- [0:0 7:0 32 0] [0] 0 0
s 0.750000000 _3_ AGT  --- 16 cbr 1000 [0 0 0 0] ------- [3:0 9:0 32 0] [5] 0 0
r 0.750000000 _3_ RTR  --- 16 cbr 1000 [0 0 0 0] ------- [3:0 9:0 32 0] [5] 0 0
D 0.750000000 _3_ RTR  IFQ 5 cbr 1020 [0 0 0 0] ------- [3:0 9:0 32 0] [0] 0 0
s 0.800000000 _0_ AGT  --- 17 cbr 1000 [0 0 0 0] ------- [0:0 7:0 32 0] [6] 0 0
r 0.800000000 _0_ RTR  --- 17 cbr 1000 [0 0 0 0] ------- [0:0 7:0 32 0] [6] 0 0
D 0.800000000 _0_ RTR  IFQ 6 cbr 1020 [0 0 0 0] ------- [0:0 7:0 32 0] [1] 0 0
s 0.800000000 _3_ AGT  --- 18 cbr 1000 [0 0 0 0] ------- [3:0 9:0 32 0] [6] 0 0
r 0.800000000 _3_ RTR  --- 18 cbr 1000 [0 0 0 0] ------- [3:0 9:0 32 0] [6] 0 0
D 0.800000000 _3_ RTR  IFQ 7 cbr 1020 [0 0 0 0] ------- [3:0 9:0 32 0] [1] 0 0
s 0.850000000 _0_ AGT  --- 19 cbr 1000 [0 0 0 0] ------- [0:0 7:0 32 0] [7] 0 0
r 0.850000000 _0_ RTR  --- 19 cbr 1000 [0 0 0 0] ------- [0:0 7:0 32 0] [7] 0 0
D 0.850000000 _0_ RTR  IFQ 8 cbr 1020 [0 0 0 0] ------- [0:0 7:0 32 0] [2] 0 0
s 0.850000000 _3_ AGT  --- 20 cbr 1000 [0 0 0 0] ------- [3:0 9:0 32 0] [7] 0 0
r 0.850000000 _3_ RTR  --- 20 cbr 1000 [0 0 0 0] ------- [3:0 9:0 32 0] [7] 0 0
D 0.850000000 _3_ RTR  IFQ 9 cbr 1020 [0 0 0 0] ------- [3:0 9:0 32 0] [2] 0 0
s 0.884759020 _4_ RTR  --- 21 message 32 [0 0 0 0] ------- [4:255 -1:255 32 0] 
s 0.885134020 _4_ MAC  --- 21 message 90 [0 ffffffff 4 800] ------- [4:255 -1:255 32 0] 
r 0.885854590 _1_ MAC  --- 21 message 32 [0 ffffffff 4 800] ------- [4:255 -1:255 32 0] 
r 0.885854735 _2_ MAC  --- 21 message 32 [0 ffffffff 4 800] ------- [4:255 -1:255 32 0] 
r 0.885854781 _0_ MAC  --- 21 message 32 [0 ffffffff 4 800] ------- [4:255 -1:255 32 0] 
r 0.885854794 _3_ MAC  --- 21 message 32 [0 ffffffff 4 800] ------- [4:255 -1:255 32 0] 
r 0.885854804 _5_ MAC  --- 21 message 32 [0 ffffffff 4 800] ------- [4:255 -1:255 32 0] 
r 0.885879590 _1_ RTR  --- 21 message 32 [0 ffffffff 4 800] ------- [4:255 -1:255 32 0] 
r 0.885879735 _2_ RTR  --- 21 message 32 [0 ffffffff 4 800] ------- [4:255 -1:255 32 0] 
r 0.885879781 _0_ RTR  --- 21 message 32 [0 ffffffff 4 800] ------- [4:255 -1:255 32 0] 
r 0.885879794 _3_ RTR  --- 21 message 32 [0 ffffffff 4 800] ------- [4:255 -1:255 32 0] 
r 0.885879804 _5_ RTR  --- 21 message 32 [0 ffffffff 4 800] ------- [4:255 -1:255 32 0] 
s 0.900000000 _0_ AGT  --- 22 cbr 1000 [0 0 0 0] ------- [0:0 7:0 32 0] [8] 0 0
r 0.900000000 _0_ RTR  --- 22 cbr 1000 [0 0 0 0] ------- [0:0 7:0 32 0] [8] 0 0
D 0.900000000 _0_ RTR  IFQ 11 cbr 1020 [0 0 0 0] ------- [0:0 7:0 32 0] [3] 0 0
s 0.900000000 _3_ AGT  --- 23 cbr 1000 [0 0 0 0] ------- [3:0 9:0 32 0] [8] 0 0
r 0.900000000 _3_ RTR  --- 23 cbr 1000 [0 0 0 0] ------- [3:0 9:0 32 0] [8] 0 0
D 0.900000000 _3_ RTR  IFQ 12 cbr 1020 [0 0 0 0] ------- [3:0 9:0 32 0] [3] 0 0
s 0.950000000 _0_ AGT  --- 24 cbr 1000 [0 0 0 0] ------- [0:0 7:0 32 0] [9] 0 0
r 0.950000000 _0_ RTR  --- 24 cbr 1000 [0 0 0 0] ------- [0:0 7:0 32 0] [9] 0 0
D 0.950000000 _0_ RTR  IFQ 13 cbr 1020 [0 0 0 0] ------- [0:0 7:0 32 0] [4] 0 0
s 0.950000000 _3_ AGT  --- 25 cbr 1000 [0 0 0 0] ------- [3:0 9:0 32 0] [9] 0 0
r 0.950000000 _3_ RTR  --- 25 cbr 1000 [0 0 0 0] ------- [3:0 9:0 32 0] [9] 0 0
D 0.950000000 _3_ RTR  IFQ 14 cbr 1020 [0 0 0 0] ------- [3:0 9:0 32 0] [4] 0 0
s 1.000000000 _0_ AGT  --- 26 cbr 1000 [0 0 0 0] ------- [0:0 7:0 32 0] [10] 0 0
r 1.000000000 _0_ RTR  --- 26 cbr 1000 [0 0 0 0] ------- [0:0 7:0 32 0] [10] 0 0
D 1.000000000 _0_ RTR  IFQ 15 cbr 1020 [0 0 0 0] ------- [0:0 7:0 32 0] [5] 0 0
s 1.000000000 _3_ AGT  --- 27 cbr 1000 [0 0 0 0] ------- [3:0 9:0 32 0] [10] 0 0
r 1.000000000 _3_ RTR  --- 27 cbr 1000 [0 0 0 0] ------- [3:0 9:0 32 0] [10] 0 0
D 1.000000000 _3_ RTR  IFQ 16 cbr 1020 [0 0 0 0] ------- [3:0 9:0 32 0] [5] 0 0
s 1.050000000 _0_ AGT  --- 28 cbr 1000 [0 0 0 0] ------- [0:0 7:0 32 0] [11] 0 0
r 1.050000000 _0_ RTR  --- 28 cbr 1000 [0 0 0 0] ------- [0:0 7:0 32 0] [11] 0 0
D 1.050000000 _0_ RTR  IFQ 17 cbr 1020 [0 0 0 0] ------- [0:0 7:0 32 0] [6] 0 0
s 1.050000000 _3_ AGT  --- 29 cbr 1000 [0 0 0 0] ------- [3:0 9:0 32 0] [11] 0 0
r 1.050000000 _3_ RTR  --- 29 cbr 1000 [0 0 0 0] ------- [3:0 9:0 32 0] [11] 0 0
D 1.050000000 _3_ RTR  IFQ 18 cbr 1020 [0 0 0 0] ------- [3:0 9:0 32 0] [6] 0 0
s 1.100000000 _0_ AGT  --- 30 cbr 1000 [0 0 0 0] ------- [0:0 7:0 32 0] [12] 0 0
r 1.100000000 _0_ RTR  --- 30 cbr 1000 [0 0 0 0] ------- [0:0 7:0 32 0] [12] 0 0
D 1.100000000 _0_ RTR  IFQ 19 cbr 1020 [0 0 0 0] ------- [0:0 7:0 32 0] [7] 0 0
s 1.100000000 _3_ AGT  --- 31 cbr 1000 [0 0 0 0] ------- [3:0 9:0 32 0] [12] 0 0
r 1.100000000 _3_ RTR  --- 31 cbr 1000 [0 0 0 0] ------- [3:0 9:0 32 0] [12] 0 0
D 1.100000000 _3_ RTR  IFQ 20 cbr 1020 [0 0 0 0] ------- [3:0 9:0 32 0] [7] 0 0
s 1.120810887 _1_ RTR  --- 32 message 32 [0 0 0 0] ------- [1:255 -1:255 32 0] 
s 1.121165887 _1_ MAC  --- 32 message 90 [0 ffffffff 1 800] ------- [1:255 -1:255 32 0] 
r 1.121886456 _4_ MAC  --- 32 message 32 [0 ffffffff 1 800] ------- [1:255 -1:255 32 0] 
r 1.121886599 _0_ MAC  --- 32 message 32 [0 ffffffff 1 800] ------- [1:255 -1:255 32 0] 
r 1.121886657 _2_ MAC  --- 32 message 32 [0 ffffffff 1 800] ------- [1:255 -1:255 32 0] 
r 1.121911456 _4_ RTR  --- 32 message 32 [0 ffffffff 1 800] ------- [1:255 -1:255 32 0] 
r 1.121911599 _0_ RTR  --- 32 message 32 [0 ffffffff 1 800] ------- [1:255 -1:255 32 0] 
r 1.121911657 _2_ RTR  --- 32 message 32 [0 ffffffff 1 800] ------- [1:255 -1:255 32 0] 
s 1.150000000 _0_ AGT  --- 33 cbr 1000 [0 0 0 0] ------- [0:0 7:0 32 0] [13] 0 0
r 1.150000000 _0_ RTR  --- 33 cbr 1000 [0 0 0 0] ------- [0:0 7:0 32 0] [13] 0 0
D 1.150000000 _0_ RTR  IFQ 22 cbr 1020 [0 0 0 0] ------- [0:0 7:0 32 0] [8] 0 0
s 1.150000000 _3_ AGT  --- 34 cbr 1000 [0 0 0 0] ------- [3:0 9:0 32 0] [13] 0 0
r 1.150000000 _3_ RTR  --- 34 cbr 1000 [0 0 0 0] ------- [3:0 9:0 32 0] [13] 0 0
D 1.150000000 _3_ RTR  IFQ 23 cbr 1020 [0 0 0 0] ------- [3:0 9:0 32 0] [8] 0 0
s 1.200000000 _0_ AGT  --- 35 cbr 1000 [0 0 0 0] ------- [0:0 7:0 32 0] [14] 0 0
r 1.200000000 _0_ RTR  --- 35 cbr 1000 [0 0 0 0] ------- [0:0 7:0 32 0] [14] 0 0
D 1.200000000 _0_ RTR  IFQ 24 cbr 1020 [0 0 0 0] ------- [0:0 7:0 32 0] [9] 0 0
s 1.200000000 _3_ AGT  --- 36 cbr 1000 [0 0 0 0] ------- [3:0 9:0 32 0] [14] 0 0
r 1.200000000 _3_ RTR  --- 36 cbr 1000 [0 0 0 0] ------- [3:0 9:0 32 0] [14] 0 0
D 1.200000000 _3_ RTR  IFQ 25 cbr 1020 [0 0 0 0] ------- [3:0 9:0 32 0] [9] 0 0
s 1.250000000 _0_ AGT  --- 37 cbr 1000 [0 0 0 0] ------- [0:0 7:0 32 0] [15] 0 0
r 1.250000000 _0_ RTR  --- 37 cbr 1000 [0 0 0 0] ------- [0:0 7:0 32 0] [15] 0 0
D 1.250000000 _0_ RTR  IFQ 26 cbr 1020 [0 0 0 0] ------- [0:0 7:0 32 0] [10] 0 0
s 1.250000000 _3_ AGT  --- 38 cbr 1000 [0 0 0 0] ------- [3:0 9:0 32 0] [15] 0 0
r 1.250000000 _3_ RTR  --- 38 cbr 1000 [0 0 0 0] ------- [3:0 9:0 32 0] [15] 0 0
D 1.250000000 _3_ RTR  IFQ 27 cbr 1020 [0 0 0 0] ------- [3:0 9:0 32 0] [10] 0 0
s 1.279603939 _9_ RTR  --- 39 message 32 [0 0 0 0] ------- [9:255 -1:255 32 0] 
s 1.279898939 _9_ MAC  --- 39 message 90 [0 ffffffff 9 800] ------- [9:255 -1:255 32 0] 
r 1.280619532 _8_ MAC  --- 39 message 32 [0 ffffffff 9 800] ------- [9:255 -1:255 32 0] 
r 1.280619551 _7_ MAC  --- 39 message 32 [0 ffffffff 9 800] ------- [9:255 -1:255 32 0] 
r 1.280644532 _8_ RTR  --- 39 message 32 [0 ffffffff 9 800] ------- [9:255 -1:255 32 0] 
r 1.280644551 _7_ RTR  --- 39 message 32 [0 ffffffff 9 800] ------- [9:255 -1:255 32 0] 
s 1.300000000 _0_ AGT  --- 40 cbr 1000 [0 0 0 0] ------- [0:0 7:0 32 0] [16] 0 0
r 1.300000000 _0_ RTR  --- 40 cbr 1000 [0 0 0 0] ------- [0:0 7:0 32 0] [16] 0 0
D 1.300000000 _0_ RTR  IFQ 28 cbr 1020 [0 0 0 0] ------- [0:0 7:0 32 0] [11] 0 0
s 1.300000000 _3_ AGT  --- 41 cbr 1000 [0 0 0 0] ------- [3:0 9:0 32 0] [16] 0 0
r 1.300000000 _3_ RTR  --- 41 cbr 1000 [0 0 0 0] ------- [3:0 9:0 32 0] [16] 0 0
D 1.300000000 _3_ RTR  IFQ 29 cbr 1020 [0 0 0 0] ------- [3:0 9:0 32 0] [11] 0 0
s 1.350000000 _0_ AGT  --- 42 cbr 1000 [0 0 0 0] ------- [0:0 7:0 32 0] [17] 0 0
r 1.350000000 _0_ RTR  --- 42 cbr 1000 [0 0 0 0] ------- [0:0 7:0 32 0] [17] 0 0
D 1.350000000 _0_ RTR  IFQ 30 cbr 1020 [0 0 0 0] ------- [0:0 7:0 32 0] [12] 0 0
s 1.350000000 _3_ AGT  --- 43 cbr 1000 [0 0 0 0] ------- [3:0 9:0 32 0] [17] 0 0
r 1.350000000 _3_ RTR  --- 43 cbr 1000 [0 0 0 0] ------- [3:0 9:0 32 0] [17] 0 0
D 1.350000000 _3_ RTR  IFQ 31 cbr 1020 [0 0 0 0] ------- [3:0 9:0 32 0] [12] 0 0
s 1.400000000 _0_ AGT  --- 44 cbr 1000 [0 0 0 0] ------- [0:0 7:0 32 0] [18] 0 0
r 1.400000000 _0_ RTR  --- 44 cbr 1000 [0 0 0 0] ------- [0:0 7:0 32 0] [18] 0 0
D 1.400000000 _0_ RTR  IFQ 33 cbr 1020 [0 0 0 0] ------- [0:0 7:0 32 0] [13] 0 0
s 1.400000000 _3_ AGT  --- 45 cbr 1000 [0 0 0 0] ------- [3:0 9:0 32 0] [18] 0 0
r 1.400000000 _3_ RTR  --- 45 cbr 1000 [0 0 0 0] ------- [3:0 9:0 32 0] [18] 0 0
D 1.400000000 _3_ RTR  IFQ 34 cbr 1020 [0 0 0 0] ------- [3:0 9:0 32 0] [13] 0 0
s 1.450000000 _0_ AGT  --- 46 cbr 1000 [0 0 0 0] ------- [0:0 7:0 32 0] [19] 0 0
r 1.450000000 _0_ RTR  --- 46 cbr 1000 [0 0 0 0] ------- [0:0 7:0 32 0] [19] 0 0
D 1.450000000 _0_ RTR  IFQ 35 cbr 1020 [0 0 0 0] ------- [0:0 7:0 32 0] [14] 0 0
s 1.450000000 _3_ AGT  --- 47 cbr 1000 [0 0 0 0] ------- [3:0 9:0 32 0] [19] 0 0
r 1.450000000 _3_ RTR  --- 47 cbr 1000 [0 0 0 0] ------- [3:0 9:0 32 0] [19] 0 0
D 1.450000000 _3_ RTR  IFQ 36 cbr 1020 [0 0 0 0] ------- [3:0 9:0 32 0] [14] 0 0
M 1.50000 0 (502.00, 404.00, 0.00), (650.00, 400.00), 100.00
s 1.500000000 _0_ AGT  --- 48 cbr 1000 [0 0 0 0] ------- [0:0 7:0 32 0] [20] 0 0
r 1.500000000 _0_ RTR  --- 48 cbr 1000 [0 0 0 0] ------- [0:0 7:0 32 0] [20] 0 0
D 1.500000000 _0_ RTR  IFQ 37 cbr 1020 [0 0 0 0] ------- [0:0 7:0 32 0] [15] 0 0
s 1.500000000 _3_ AGT  --- 49 cbr 1000 [0 0 0 0] ------- [3:0 9:0 32 0] [20] 0 0
r 1.500000000 _3_ RTR  --- 49 cbr 1000 [0 0 0 0] ------- [3:0 9:0 32 0] [20] 0 0
D 1.500000000 _3_ RTR  IFQ 38 cbr 1020 [0 0 0 0] ------- [3:0 9:0 32 0] [15] 0 0
s 1.550000000 _0_ AGT  --- 50 cbr 1000 [0 0 0 0] ------- [0:0 7:0 32 0] [21] 0 0
r 1.550000000 _0_ RTR  --- 50 cbr 1000 [0 0 0 0] ------- [0:0 7:0 32 0] [21] 0 0
D 1.550000000 _0_ RTR  IFQ 40 cbr 1020 [0 0 0 0] ------- [0:0 7:0 32 0] [16] 0 0
s 1.550000000 _3_ AGT  --- 51 cbr 1000 [0 0 0 0] ------- [3:0 9:0 32 0] [21] 0 0
r 1.550000000 _3_ RTR  --- 51 cbr 1000 [0 0 0 0] ------- [3:0 9:0 32 0] [21] 0 0
D 1.550000000 _3_ RTR  IFQ 41 cbr 1020 [0 0 0 0] ------- [3:0 9:0 32 0] [16] 0 0
s 1.599431220 _5_ RTR  --- 52 message 32 [0 0 0 0] ------- [5:255 -1:255 32 0] 
s 1.599626220 _5_ MAC  --- 52 message 90 [0 ffffffff 5 800] ------- [5:255 -1:255 32 0] 
s 1.600000000 _0_ AGT  --- 53 cbr 1000 [0 0 0 0] ------- [0:0 7:0 32 0] [22] 0 0
r 1.600000000 _0_ RTR  --- 53 cbr 1000 [0 0 0 0] ------- [0:0 7:0 32 0] [22] 0 0
D 1.600000000 _0_ RTR  IFQ 42 cbr 1020 [0 0 0 0] ------- [0:0 7:0 32 0] [17] 0 0
s 1.600000000 _3_ AGT  --- 54 cbr 1000 [0 0 0 0] ------- [3:0 9:0 32 0] [22] 0 0
r 1.600000000 _3_ RTR  --- 54 cbr 1000 [0 0 0 0] ------- [3:0 9:0 32 0] [22] 0 0
D 1.600000000 _3_ RTR  IFQ 43 cbr 1020 [0 0 0 0] ------- [3:0 9:0 32 0] [17] 0 0
r 1.600346660 _7_ MAC  --- 52 message 32 [0 ffffffff 5 800] ------- [5:255 -1:255 32 0] 
r 1.600346836 _2_ MAC  --- 52 message 32 [0 ffffffff 5 800] ------- [5:255 -1:255 32 0] 
r 1.600346876 _8_ MAC  --- 52 message 32 [0 ffffffff 5 800] ------- [5:255 -1:255 32 0] 
r 1.600346974 _6_ MAC  --- 52 message 32 [0 ffffffff 5 800] ------- [5:255 -1:255 32 0] 
r 1.600347004 _4_ MAC  --- 52 message 32 [0 ffffffff 5 800] ------- [5:255 -1:255 32 0] 
r 1.600371660 _7_ RTR  --- 52 message 32 [0 ffffffff 5 800] ------- [5:255 -1:255 32 0] 
r 1.600371836 _2_ RTR  --- 52 message 32 [0 ffffffff 5 800] ------- [5:255 -1:255 32 0] 
r 1.600371876 _8_ RTR  --- 52 message 32 [0 ffffffff 5 800] ------- [5:255 -1:255 32 0] 
r 1.600371974 _6_ RTR  --- 52 message 32 [0 ffffffff 5 800] ------- [5:255 -1:255 32 0] 
r 1.600372004 _4_ RTR  --- 52 message 32 [0 ffffffff 5 800] ------- [5:255 -1:255 32 0] 
s 1.636308730 _7_ RTR  --- 55 message 32 [0 0 0 0] ------- [7:255 -1:255 32 0] 
s 1.636563730 _7_ MAC  --- 55 message 90 [0 ffffffff 7 800] ------- [7:255 -1:255 32 0] 
r 1.637284170 _5_ MAC  --- 55 message 32 [0 ffffffff 7 800] ------- [7:255 -1:255 32 0] 
r 1.637284342 _9_ MAC  --- 55 message 32 [0 ffffffff 7 800] ------- [7:255 -1:255 32 0] 
r 1.637284451 _8_ MAC  --- 55 message 32 [0 ffffffff 7 800] ------- [7:255 -1:255 32 0] 
r 1.637284469 _2_ MAC  --- 55 message 32 [0 ffffffff 7 800] ------- [7:255 -1:255 32 0] 
r 1.637309170 _5_ RTR  --- 55 message 32 [0 ffffffff 7 800] ------- [7:255 -1:255 32 0] 
r 1.637309342 _9_ RTR  --- 55 message 32 [0 ffffffff 7 800] ------- [7:255 -1:255 32 0] 
r 1.637309451 _8_ RTR  --- 55 message 32 [0 ffffffff 7 800] ------- [7:255 -1:255 32 0] 
r 1.637309469 _2_ RTR  --- 55 message 32 [0 ffffffff 7 800] ------- [7:255 -1:255 32 0] 
s 1.650000000 _0_ AGT  --- 56 cbr 1000 [0 0 0 0] ------- [0:0 7:0 32 0] [23] 0 0
r 1.650000000 _0_ RTR  --- 56 cbr 1000 [0 0 0 0] ------- [0:0 7:0 32 0] [23] 0 0
D 1.650000000 _0_ RTR  IFQ 44 cbr 1020 [0 0 0 0] ------- [0:0 7:0 32 0] [18] 0 0
s 1.650000000 _3_ AGT  --- 57 cbr 1000 [0 0 0 0] ------- [3:0 9:0 32 0] [23] 0 0
r 1.650000000 _3_ RTR  --- 57 cbr 1000 [0 0 0 0] ------- [3:0 9:0 32 0] [23] 0 0
D 1.650000000 _3_ RTR  IFQ 45 cbr 1020 [0 0 0 0] ------- [3:0 9:0 32 0] [18] 0 0
s 1.700000000 _0_ AGT  --- 58 cbr 1000 [0 0 0 0] ------- [0:0 7:0 32 0] [24] 0 0
r 1.700000000 _0_ RTR  --- 58 cbr 1000 [0 0 0 0] ------- [0:0 7:0 32 0] [24] 0 0
D 1.700000000 _0_ RTR  IFQ 46 cbr 1020 [0 0 0 0] ------- [0:0 7:0 32 0] [19] 0 0
s 1.700000000 _3_ AGT  --- 59 cbr 1000 [0 0 0 0] ------- [3:0 9:0 32 0] [24] 0 0
r 1.700000000 _3_ RTR  --- 59 cbr 1000 [0 0 0 0] ------- [3:0 9:0 32 0] [24] 0 0
D 1.700000000 _3_ RTR  IFQ 47 cbr 1020 [0 0 0 0] ------- [3:0 9:0 32 0] [19] 0 0
s 1.750000000 _0_ AGT  --- 60 cbr 1000 [0 0 0 0] ------- [0:0 7:0 32 0] [25] 0 0
r 1.750000000 _0_ RTR  --- 60 cbr 1000 [0 0 0 0] ------- [0:0 7:0 32 0] [25] 0 0
D 1.750000000 _0_ RTR  IFQ 48 cbr 1020 [0 0 0 0] ------- [0:0 7:0 32 0] [20] 0 0
s 1.750000000 _3_ AGT  --- 61 cbr 1000 [0 0 0 0] ------- [3:0 9:0 32 0] [25] 0 0
r 1.750000000 _3_ RTR  --- 61 cbr 1000 [0 0 0 0] ------- [3:0 9:0 32 0] [25] 0 0
D 1.750000000 _3_ RTR  IFQ 49 cbr 1020 [0 0 0 0] ------- [3:0 9:0 32 0] [20] 0 0
s 1.800000000 _0_ AGT  --- 62 cbr 1000 [0 0 0 0] ------- [0:0 7:0 32 0] [26] 0 0
r 1.800000000 _0_ RTR  --- 62 cbr 1000 [0 0 0 0] ------- [0:0 7:0 32 0] [26] 0 0
D 1.800000000 _0_ RTR  IFQ 50 cbr 1020 [0 0 0 0] ------- [0:0 7:0 32 0] [21] 0 0
s 1.800000000 _3_ AGT  --- 63 cbr 1000 [0 0 0 0] ------- [3:0 9:0 32 0] [26] 0 0
r 1.800000000 _3_ RTR  --- 63 cbr 1000 [0 0 0 0] ------- [3:0 9:0 32 0] [26] 0 0
D 1.800000000 _3_ RTR  IFQ 51 cbr 1020 [0 0 0 0] ------- [3:0 9:0 32 0] [21] 0 0
s 1.850000000 _0_ AGT  --- 64 cbr 1000 [0 0 0 0] ------- [0:0 7:0 32 0] [27] 0 0
r 1.850000000 _0_ RTR  --- 64 cbr 1000 [0 0 0 0] ------- [0:0 7:0 32 0] [27] 0 0
D 1.850000000 _0_ RTR  IFQ 53 cbr 1020 [0 0 0 0] ------- [0:0 7:0 32 0] [22] 0 0
s 1.850000000 _3_ AGT  --- 65 cbr 1000 [0 0 0 0] ------- [3:0 9:0 32 0] [27] 0 0
r 1.850000000 _3_ RTR  --- 65 cbr 1000 [0 0 0 0] ------- [3:0 9:0 32 0] [27] 0 0
D 1.850000000 _3_ RTR  IFQ 54 cbr 1020 [0 0 0 0] ------- [3:0 9:0 32 0] [22] 0 0
s 1.900000000 _0_ AGT  --- 66 cbr 1000 [0 0 0 0] ------- [0:0 7:0 32 0] [28] 0 0
r 1.900000000 _0_ RTR  --- 66 cbr 1000 [0 0 0 0] ------- [0:0 7:0 32 0] [28] 0 0
D 1.900000000 _0_ RTR  IFQ 56 cbr 1020 [0 0 0 0] ------- [0:0 7:0 32 0] [23] 0 0
s 1.900000000 _3_ AGT  --- 67 cbr 1000 [0 0 0 0] ------- [3:0 9:0 32 0] [28] 0 0
r 1.900000000 _3_ RTR  --- 67 cbr 1000 [0 0 0 0] ------- [3:0 9:0 32 0] [28] 0 0
D 1.900000000 _3_ RTR  IFQ 57 cbr 1020 [0 0 0 0] ------- [3:0 9:0 32 0] [23] 0 0
s 1.950000000 _0_ AGT  --- 68 cbr 1000 [0 0 0 0] ------- [0:0 7:0 32 0] [29] 0 0
r 1.950000000 _0_ RTR  --- 68 cbr 1000 [0 0 0 0] ------- [0:0 7:0 32 0] [29] 0 0
D 1.950000000 _0_ RTR  IFQ 58 cbr 1020 [0 0 0 0] ------- [0:0 7:0 32 0] [24] 0 0
s 1.950000000 _3_ AGT  --- 69 cbr 1000 [0 0 0 0] ------- [3:0 9:0 32 0] [29] 0 0
r 1.950000000 _3_ RTR  --- 69 cbr 1000 [0 0 0 0] ------- [3:0 9:0 32 0] [29] 0 0
D 1.950000000 _3_ RTR  IFQ 59 cbr 1020 [0 0 0 0] ------- [3:0 9:0 32 0] [24] 0 0
s 2.000000000 _0_ AGT  --- 70 cbr 1000 [0 0 0 0] ------- [0:0 7:0 32 0] [30] 0 0
r 2.000000000 _0_ RTR  --- 70 cbr 1000 [0 0 0 0] ------- [0:0 7:0 32 0] [30] 0 0
D 2.000000000 _0_ RTR  IFQ 60 cbr 1020 [0 0 0 0] ------- [0:0 7:0 32 0] [25] 0 0
s 2.000000000 _3_ AGT  --- 71 cbr 1000 [0 0 0 0] ------- [3:0 9:0 32 0] [30] 0 0
r 2.000000000 _3_ RTR  --- 71 cbr 1000 [0 0 0 0] ------- [3:0 9:0 32 0] [30] 0 0
D 2.000000000 _3_ RTR  IFQ 61 cbr 1020 [0 0 0 0] ------- [3:0 9:0 32 0] [25] 0 0
s 2.050000000 _0_ AGT  --- 72 cbr 1000 [0 0 0 0] ------- [0:0 7:0 32 0] [31] 0 0
r 2.050000000 _0_ RTR  --- 72 cbr 1000 [0 0 0 0] ------- [0:0 7:0 32 0] [31] 0 0
D 2.050000000 _0_ RTR  IFQ 62 cbr 1020 [0 0 0 0] ------- [0:0 7:0 32 0] [26] 0 0
s 2.050000000 _3_ AGT  --- 73 cbr 1000 [0 0 0 0] ------- [3:0 9:0 32 0] [31] 0 0
r 2.050000000 _3_ RTR  --- 73 cbr 1000 [0 0 0 0] ------- [3:0 9:0 32 0] [31] 0 0
D 2.050000000 _3_ RTR  IFQ 63 cbr 1020 [0 0 0 0] ------- [3:0 9:0 32 0] [26] 0 0
s 2.100000000 _0_ AGT  --- 74 cbr 1000 [0 0 0 0] ------- [0:0 7:0 32 0] [32] 0 0
r 2.100000000 _0_ RTR  --- 74 cbr 1000 [0 0 0 0] ------- [0:0 7:0 32 0] [32] 0 0
D 2.100000000 _0_ RTR  IFQ 64 cbr 1020 [0 0 0 0] ------- [0:0 7:0 32 0] [27] 0 0
s 2.100000000 _3_ AGT  --- 75 cbr 1000 [0 0 0 0] ------- [3:0 9:0 32 0] [32] 0 0
r 2.100000000 _3_ RTR  --- 75 cbr 1000 [0 0 0 0] ------- [3:0 9:0 32 0] [32] 0 0
D 2.100000000 _3_ RTR  IFQ 65 cbr 1020 [0 0 0 0] ------- [3:0 9:0 32 0] [27] 0 0
s 2.150000000 _0_ AGT  --- 76 cbr 1000 [0 0 0 0] ------- [0:0 7:0 32 0] [33] 0 0
r 2.150000000 _0_ RTR  --- 76 cbr 1000 [0 0 0 0] ------- [0:0 7:0 32 0] [33] 0 0
D 2.150000000 _0_ RTR  IFQ 66 cbr 1020 [0 0 0 0] ------- [0:0 7:0 32 0] [28] 0 0
s 2.150000000 _3_ AGT  --- 77 cbr 1000 [0 0 0 0] ------- [3:0 9:0 32 0] [33] 0 0
r 2.150000000 _3_ RTR  --- 77 cbr 1000 [0 0 0 0] ------- [3:0 9:0 32 0] [33] 0 0
D 2.150000000 _3_ RTR  IFQ 67 cbr 1020 [0 0 0 0] ------- [3:0 9:0 32 0] [28] 0 0
s 2.200000000 _0_ AGT  --- 78 cbr 1000 [0 0 0 0] ------- [0:0 7:0 32 0] [34] 0 0
r 2.200000000 _0_ RTR  --- 78 cbr 1000 [0 0 0 0] ------- [0:0 7:0 32 0] [34] 0 0
D 2.200000000 _0_ RTR  IFQ 68 cbr 1020 [0 0 0 0] ------- [0:0 7:0 32 0] [29] 0 0
s 2.200000000 _3_ AGT  --- 79 cbr 1000 [0 0 0 0] ------- [3:0 9:0 32 0] [34] 0 0
r 2.200000000 _3_ RTR  --- 79 cbr 1000 [0 0 0 0] ------- [3:0 9:0 32 0] [34] 0 0
D 2.200000000 _3_ RTR  IFQ 69 cbr 1020 [0 0 0 0] ------- [3:0 9:0 32 0] [29] 0 0
s 2.250000000 _0_ AGT  --- 80 cbr 1000 [0 0 0 0] ------- [0:0 7:0 32 0] [35] 0 0
r 2.250000000 _0_ RTR  --- 80 cbr 1000 [0 0 0 0] ------- [0:0 7:0 32 0] [35] 0 0
D 2.250000000 _0_ RTR  IFQ 70 cbr 1020 [0 0 0 0] ------- [0:0 7:0 32 0] [30] 0 0
s 2.250000000 _3_ AGT  --- 81 cbr 1000 [0 0 0 0] ------- [3:0 9:0 32 0] [35] 0 0
r 2.250000000 _3_ RTR  --- 81 cbr 1000 [0 0 0 0] ------- [3:0 9:0 32 0] [35] 0 0
D 2.250000000 _3_ RTR  IFQ 71 cbr 1020 [0 0 0 0] ------- [3:0 9:0 32 0] [30] 0 0
s 2.300000000 _0_ AGT  --- 82 cbr 1000 [0 0 0 0] ------- [0:0 7:0 32 0] [36] 0 0
r 2.300000000 _0_ RTR  --- 82 cbr 1000 [0 0 0 0] ------- [0:0 7:0 32 0] [36] 0 0
D 2.300000000 _0_ RTR  IFQ 72 cbr 1020 [0 0 0 0] ------- [0:0 7:0 32 0] [31] 0 0
s 2.300000000 _3_ AGT  --- 83 cbr 1000 [0 0 0 0] ------- [3:0 9:0 32 0] [36] 0 0
r 2.300000000 _3_ RTR  --- 83 cbr 1000 [0 0 0 0] ------- [3:0 9:0 32 0] [36] 0 0
D 2.300000000 _3_ RTR  IFQ 73 cbr 1020 [0 0 0 0] ------- [3:0 9:0 32 0] [31] 0 0
s 2.350000000 _0_ AGT  --- 84 cbr 1000 [0 0 0 0] ------- [0:0 7:0 32 0] [37] 0 0
r 2.350000000 _0_ RTR  --- 84 cbr 1000 [0 0 0 0] ------- [0:0 7:0 32 0] [37] 0 0
D 2.350000000 _0_ RTR  IFQ 74 cbr 1020 [0 0 0 0] ------- [0:0 7:0 32 0] [32] 0 0
s 2.350000000 _3_ AGT  --- 85 cbr 1000 [0 0 0 0] ------- [3:0 9:0 32 0] [37] 0 0
r 2.350000000 _3_ RTR  --- 85 cbr 1000 [0 0 0 0] ------- [3:0 9:0 32 0] [37] 0 0
D 2.350000000 _3_ RTR  IFQ 75 cbr 1020 [0 0 0 0] ------- [3:0 9:0 32 0] [32] 0 0
s 2.400000000 _0_ AGT  --- 86 cbr 1000 [0 0 0 0] ------- [0:0 7:0 32 0] [38] 0 0
r 2.400000000 _0_ RTR  --- 86 cbr 1000 [0 0 0 0] ------- [0:0 7:0 32 0] [38] 0 0
D 2.400000000 _0_ RTR  IFQ 76 cbr 1020 [0 0 0 0] ------- [0:0 7:0 32 0] [33] 0 0
s 2.400000000 _3_ AGT  --- 87 cbr 1000 [0 0 0 0] ------- [3:0 9:0 32 0] [38] 0 0
r 2.400000000 _3_ RTR  --- 87 cbr 1000 [0 0 0 0] ------- [3:0 9:0 32 0] [38] 0 0
D 2.400000000 _3_ RTR  IFQ 77 cbr 1020 [0 0 0 0] ------- [3:0 9:0 32 0] [33] 0 0
s 2.450000000 _0_ AGT  --- 88 cbr 1000 [0 0 0 0] ------- [0:0 7:0 32 0] [39] 0 0
r 2.450000000 _0_ RTR  --- 88 cbr 1000 [0 0 0 0] ------- [0:0 7:0 32 0] [39] 0 0
D 2.450000000 _0_ RTR  IFQ 78 cbr 1020 [0 0 0 0] ------- [0:0 7:0 32 0] [34] 0 0
s 2.450000000 _3_ AGT  --- 89 cbr 1000 [0 0 0 0] ------- [3:0 9:0 32 0] [39] 0 0
r 2.450000000 _3_ RTR  --- 89 cbr 1000 [0 0 0 0] ------- [3:0 9:0 32 0] [39] 0 0
D 2.450000000 _3_ RTR  IFQ 79 cbr 1020 [0 0 0 0] ------- [3:0 9:0 32 0] [34] 0 0
s 2.500000000 _0_ AGT  --- 90 cbr 1000 [0 0 0 0] ------- [0:0 7:0 32 0] [40] 0 0
r 2.500000000 _0_ RTR  --- 90 cbr 1000 [0 0 0 0] ------- [0:0 7:0 32 0] [40] 0 0
D 2.500000000 _0_ RTR  IFQ 80 cbr 1020 [0 0 0 0] ------- [0:0 7:0 32 0] [35] 0 0
s 2.500000000 _3_ AGT  --- 91 cbr 1000 [0 0 0 0] ------- [3:0 9:0 32 0] [40] 0 0
r 2.500000000 _3_ RTR  --- 91 cbr 1000 [0 0 0 0] ------- [3:0 9:0 32 0] [40] 0 0
D 2.500000000 _3_ RTR  IFQ 81 cbr 1020 [0 0 0 0] ------- [3:0 9:0 32 0] [35] 0 0
s 2.550000000 _0_ AGT  --- 92 cbr 1000 [0 0 0 0] ------- [0:0 7:0 32 0] [41] 0 0
r 2.550000000 _0_ RTR  --- 92 cbr 1000 [0 0 0 0] ------- [0:0 7:0 32 0] [41] 0 0
D 2.550000000 _0_ RTR  IFQ 82 cbr 1020 [0 0 0 0] ------- [0:0 7:0 32 0] [36] 0 0
s 2.550000000 _3_ AGT  --- 93 cbr 1000 [0 0 0 0] ------- [3:0 9:0 32 0] [41] 0 0
r 2.550000000 _3_ RTR  --- 93 cbr 1000 [0 0 0 0] ------- [3:0 9:0 32 0] [41] 0 0
D 2.550000000 _3_ RTR  IFQ 83 cbr 1020 [0 0 0 0] ------- [3:0 9:0 32 0] [36] 0 0
s 2.600000000 _0_ AGT  --- 94 cbr 1000 [0 0 0 0] ------- [0:0 7:0 32 0] [42] 0 0
r 2.600000000 _0_ RTR  --- 94 cbr 1000 [0 0 0 0] ------- [0:0 7:0 32 0] [42] 0 0
D 2.600000000 _0_ RTR  IFQ 84 cbr 1020 [0 0 0 0] ------- [0:0 7:0 32 0] [37] 0 0
s 2.600000000 _3_ AGT  --- 95 cbr 1000 [0 0 0 0] ------- [3:0 9:0 32 0] [42] 0 0
r 2.600000000 _3_ RTR  --- 95 cbr 1000 [0 0 0 0] ------- [3:0 9:0 32 0] [42] 0 0
D 2.600000000 _3_ RTR  IFQ 85 cbr 1020 [0 0 0 0] ------- [3:0 9:0 32 0] [37] 0 0
s 2.650000000 _0_ AGT  --- 96 cbr 1000 [0 0 0 0] ------- [0:0 7:0 32 0] [43] 0 0
r 2.650000000 _0_ RTR  --- 96 cbr 1000 [0 0 0 0] ------- [0:0 7:0 32 0] [43] 0 0
D 2.650000000 _0_ RTR  IFQ 86 cbr 1020 [0 0 0 0] ------- [0:0 7:0 32 0] [38] 0 0
s 2.650000000 _3_ AGT  --- 97 cbr 1000 [0 0 0 0] ------- [3:0 9:0 32 0] [43] 0 0
r 2.650000000 _3_ RTR  --- 97 cbr 1000 [0 0 0 0] ------- [3:0 9:0 32 0] [43] 0 0
D 2.650000000 _3_ RTR  IFQ 87 cbr 1020 [0 0 0 0] ------- [3:0 9:0 32 0] [38] 0 0
s 2.700000000 _0_ AGT  --- 98 cbr 1000 [0 0 0 0] ------- [0:0 7:0 32 0] [44] 0 0
r 2.700000000 _0_ RTR  --- 98 cbr 1000 [0 0 0 0] ------- [0:0 7:0 32 0] [44] 0 0
D 2.700000000 _0_ RTR  IFQ 88 cbr 1020 [0 0 0 0] ------- [0:0 7:0 32 0] [39] 0 0
s 2.700000000 _3_ AGT  --- 99 cbr 1000 [0 0 0 0] ------- [3:0 9:0 32 0] [44] 0 0
r 2.700000000 _3_ RTR  --- 99 cbr 1000 [0 0 0 0] ------- [3:0 9:0 32 0] [44] 0 0
D 2.700000000 _3_ RTR  IFQ 89 cbr 1020 [0 0 0 0] ------- [3:0 9:0 32 0] [39] 0 0
s 2.750000000 _0_ AGT  --- 100 cbr 1000 [0 0 0 0] ------- [0:0 7:0 32 0] [45] 0 0
r 2.750000000 _0_ RTR  --- 100 cbr 1000 [0 0 0 0] ------- [0:0 7:0 32 0] [45] 0 0
D 2.750000000 _0_ RTR  IFQ 90 cbr 1020 [0 0 0 0] ------- [0:0 7:0 32 0] [40] 0 0
s 2.750000000 _3_ AGT  --- 101 cbr 1000 [0 0 0 0] ------- [3:0 9:0 32 0] [45] 0 0
r 2.750000000 _3_ RTR  --- 101 cbr 1000 [0 0 0 0] ------- [3:0 9:0 32 0] [45] 0 0
D 2.750000000 _3_ RTR  IFQ 91 cbr 1020 [0 0 0 0] ------- [3:0 9:0 32 0] [40] 0 0
s 2.800000000 _0_ AGT  --- 102 cbr 1000 [0 0 0 0] ------- [0:0 7:0 32 0] [46] 0 0
r 2.800000000 _0_ RTR  --- 102 cbr 1000 [0 0 0 0] ------- [0:0 7:0 32 0] [46] 0 0
D 2.800000000 _0_ RTR  IFQ 92 cbr 1020 [0 0 0 0] ------- [0:0 7:0 32 0] [41] 0 0
s 2.800000000 _3_ AGT  --- 103 cbr 1000 [0 0 0 0] ------- [3:0 9:0 32 0] [46] 0 0