s 0.008749440 _0_ RTR  --- 0 message 32 [0 0 0 0] ------- [0:255 -1:255 32 0] 
s 0.009044440 _0_ MAC  --- 0 message 90 [0 ffffffff 0 800] ------- [0:255 -1:255 32 0] 
r 0.009764974 _1_ MAC  --- 0 message 32 [0 ffffffff 0 800] ------- [0:255 -1:255 32 0] 
r 0.009765233 _2_ MAC  --- 0 message 32 [0 ffffffff 0 800] ------- [0:255 -1:255 32 0] 
r 0.009789974 _1_ RTR  --- 0 message 32 [0 ffffffff 0 800] ------- [0:255 -1:255 32 0] 
r 0.009790233 _2_ RTR  --- 0 message 32 [0 ffffffff 0 800] ------- [0:255 -1:255 32 0] 
s 0.033595809 _2_ RTR  --- 1 message 32 [0 0 0 0] ------- [2:255 -1:255 32 0] 
s 0.033850809 _2_ MAC  --- 1 message 90 [0 ffffffff 2 800] ------- [2:255 -1:255 32 0] 
r 0.034571256 _1_ MAC  --- 1 message 32 [0 ffffffff 2 800] ------- [2:255 -1:255 32 0] 
r 0.034571292 _3_ MAC  --- 1 message 32 [0 ffffffff 2 800] ------- [2:255 -1:255 32 0] 
r 0.034571602 _0_ MAC  --- 1 message 32 [0 ffffffff 2 800] ------- [2:255 -1:255 32 0] 
r 0.034571630 _4_ MAC  --- 1 message 32 [0 ffffffff 2 800] ------- [2:255 -1:255 32 0] 
r 0.034596256 _1_ RTR  --- 1 message 32 [0 ffffffff 2 800] ------- [2:255 -1:255 32 0] 
r 0.034596292 _3_ RTR  --- 1 message 32 [0 ffffffff 2 800] ------- [2:255 -1:255 32 0] 
r 0.034596602 _0_ RTR  --- 1 message 32 [0 ffffffff 2 800] ------- [2:255 -1:255 32 0] 
r 0.034596630 _4_ RTR  --- 1 message 32 [0 ffffffff 2 800] ------- [2:255 -1:255 32 0] 
s 0.093987367 _13_ RTR  --- 2 message 32 [0 0 0 0] ------- [13:255 -1:255 32 0] 
s 0.094422367 _13_ MAC  --- 2 message 90 [0 ffffffff d 800] ------- [13:255 -1:255 32 0] 
r 0.095142905 _18_ MAC  --- 2 message 32 [0 ffffffff d 800] ------- [13:255 -1:255 32 0] 
r 0.095142950 _14_ MAC  --- 2 message 32 [0 ffffffff d 800] ------- [13:255 -1:255 32 0] 
r 0.095142961 _5_ MAC  --- 2 message 32 [0 ffffffff d 800] ------- [13:255 -1:255 32 0] 
r 0.095142966 _12_ MAC  --- 2 message 32 [0 ffffffff d 800] ------- [13:255 -1:255 32 0] 
r 0.095143191 _19_ MAC  --- 2 message 32 [0 ffffffff d 800] ------- [13:255 -1:255 32 0] 
r 0.095167905 _18_ RTR  --- 2 message 32 [0 ffffffff d 800] ------- [13:255 -1:255 32 0] 
r 0.095167950 _14_ RTR  --- 2 message 32 [0 ffffffff d 800] ------- [13:255 -1:255 32 0] 
r 0.095167961 _5_ RTR  --- 2 message 32 [0 ffffffff d 800] ------- [13:255 -1:255 32 0] 
r 0.095167966 _12_ RTR  --- 2 message 32 [0 ffffffff d 800] ------- [13:255 -1:255 32 0] 
r 0.095168191 _19_ RTR  --- 2 message 32 [0 ffffffff d 800] ------- [13:255 -1:255 32 0] 
s 0.183018832 _3_ RTR  --- 3 message 32 [0 0 0 0] ------- [3:255 -1:255 32 0] 
s 0.183233832 _3_ MAC  --- 3 message 90 [0 ffffffff 3 800] ------- [3:255 -1:255 32 0] 
r 0.183954315 _2_ MAC  --- 3 message 32 [0 ffffffff 3 800] ------- [3:255 -1:255 32 0] 
r 0.183954323 _6_ MAC  --- 3 message 32 [0 ffffffff 3 800] ------- [3:255 -1:255 32 0] 
r 0.183954336 _4_ MAC  --- 3 message 32 [0 ffffffff 3 800] ------- [3:255 -1:255 32 0] 
r 0.183954455 _1_ MAC  --- 3 message 32 [0 ffffffff 3 800] ------- [3:255 -1:255 32 0] 
r 0.183954540 _7_ MAC  --- 3 message 32 [0 ffffffff 3 800] ------- [3:255 -1:255 32 0] 
r 0.183979315 _2_ RTR  --- 3 message 32 [0 ffffffff 3 800] ------- [3:255 -1:255 32 0] 
r 0.183979323 _6_ RTR  --- 3 message 32 [0 ffffffff 3 800] ------- [3:255 -1:255 32 0] 
r 0.183979336 _4_ RTR  --- 3 message 32 [0 ffffffff 3 800] ------- [3:255 -1:255 32 0] 
r 0.183979455 _1_ RTR  --- 3 message 32 [0 ffffffff 3 800] ------- [3:255 -1:255 32 0] 
r 0.183979540 _7_ RTR  --- 3 message 32 [0 ffffffff 3 800] ------- [3:255 -1:255 32 0] 
s 0.189369694 _19_ RTR  --- 4 message 32 [0 0 0 0] ------- [19:255 -1:255 32 0] 
s 0.189544694 _19_ MAC  --- 4 message 90 [0 ffffffff 13 800] ------- [19:255 -1:255 32 0] 
r 0.190265067 _14_ MAC  --- 4 message 32 [0 ffffffff 13 800] ------- [19:255 -1:255 32 0] 
r 0.190265128 _4_ MAC  --- 4 message 32 [0 ffffffff 13 800] ------- [19:255 -1:255 32 0] 
r 0.190265161 _16_ MAC  --- 4 message 32 [0 ffffffff 13 800] ------- [19:255 -1:255 32 0] 
r 0.190265169 _5_ MAC  --- 4 message 32 [0 ffffffff 13 800] ------- [19:255 -1:255 32 0] 
r 0.190265283 _15_ MAC  --- 4 message 32 [0 ffffffff 13 800] ------- [19:255 -1:255 32 0] 
r 0.190265358 _6_ MAC  --- 4 message 32 [0 ffffffff 13 800] ------- [19:255 -1:255 32 0] 
r 0.190265389 _18_ MAC  --- 4 message 32 [0 ffffffff 13 800] ------- [19:255 -1:255 32 0] 
r 0.190265500 _17_ MAC  --- 4 message 32 [0 ffffffff 13 800] ------- [19:255 -1:255 32 0] 
r 0.190265518 _13_ MAC  --- 4 message 32 [0 ffffffff 13 800] ------- [19:255 -1:255 32 0] 
r 0.190265521 _1_ MAC  --- 4 message 32 [0 ffffffff 13 800] ------- [19:255 -1:255 32 0] 
r 0.190290067 _14_ RTR  --- 4 message 32 [0 ffffffff 13 800] ------- [19:255 -1:255 32 0] 
r 0.190290128 _4_ RTR  --- 4 message 32 [0 ffffffff 13 800] ------- [19:255 -1:255 32 0] 
r 0.190290161 _16_ RTR  --- 4 message 32 [0 ffffffff 13 800] ------- [19:255 -1:255 32 0] 
r 0.190290169 _5_ RTR  --- 4 message 32 [0 ffffffff 13 800] ------- [19:255 -1:255 32 0] 
r 0.190290283 _15_ RTR  --- 4 message 32 [0 ffffffff 13 800] ------- [19:255 -1:255 32 0] 
r 0.190290358 _6_ RTR  --- 4 message 32 [0 ffffffff 13 800] ------- [19:255 -1:255 32 0] 
r 0.190290389 _18_ RTR  --- 4 message 32 [0 ffffffff 13 800] ------- [19:255 -1:255 32 0] 
r 0.190290500 _17_ RTR  --- 4 message 32 [0 ffffffff 13 800] ------- [19:255 -1:255 32 0] 
r 0.190290518 _13_ RTR  --- 4 message 32 [0 ffffffff 13 800] ------- [19:255 -1:255 32 0] 
r 0.190290521 _1_ RTR  --- 4 message 32 [0 ffffffff 13 800] ------- [19:255 -1:255 32 0] 
s 0.237079147 _15_ RTR  --- 5 message 32 [0 0 0 0] ------- [15:255 -1:255 32 0] 
s 0.237734147 _15_ MAC  --- 5 message 90 [0 ffffffff f 800] ------- [15:255 -1:255 32 0] 
r 0.238454394 _16_ MAC  --- 5 message 32 [0 ffffffff f 800] ------- [15:255 -1:255 32 0] 
r 0.238454407 _17_ MAC  --- 5 message 32 [0 ffffffff f 800] ------- [15:255 -1:255 32 0] 
r 0.238454555 _14_ MAC  --- 5 message 32 [0 ffffffff f 800] ------- [15:255 -1:255 32 0] 
r 0.238454616 _18_ MAC  --- 5 message 32 [0 ffffffff f 800] ------- [15:255 -1:255 32 0] 
r 0.238454736 _19_ MAC  --- 5 message 32 [0 ffffffff f 800] ------- [15:255 -1:255 32 0] 
r 0.238479394 _16_ RTR  --- 5 message 32 [0 ffffffff f 800] ------- [15:255 -1:255 32 0] 
r 0.238479407 _17_ RTR  --- 5 message 32 [0 ffffffff f 800] ------- [15:255 -1:255 32 0] 
r 0.238479555 _14_ RTR  --- 5 message 32 [0 ffffffff f 800] ------- [15:255 -1:255 32 0] 
r 0.238479616 _18_ RTR  --- 5 message 32 [0 ffffffff f 800] ------- [15:255 -1:255 32 0] 
r 0.238479736 _19_ RTR  --- 5 message 32 [0 ffffffff f 800] ------- [15:255 -1:255 32 0] 
s 0.328398897 _12_ RTR  --- 6 message 32 [0 0 0 0] ------- [12:255 -1:255 32 0] 
s 0.328973897 _12_ MAC  --- 6 message 90 [0 ffffffff c 800] ------- [12:255 -1:255 32 0] 
r 0.329694453 _10_ MAC  --- 6 message 32 [0 ffffffff c 800] ------- [12:255 -1:255 32 0] 
r 0.329694495 _13_ MAC  --- 6 message 32 [0 ffffffff c 800] ------- [12:255 -1:255 32 0] 
r 0.329694565 _5_ MAC  --- 6 message 32 [0 ffffffff c 800] ------- [12:255 -1:255 32 0] 
r 0.329694687 _8_ MAC  --- 6 message 32 [0 ffffffff c 800] ------- [12:255 -1:255 32 0] 
r 0.329719453 _10_ RTR  --- 6 message 32 [0 ffffffff c 800] ------- [12:255 -1:255 32 0] 
r 0.329719495 _13_ RTR  --- 6 message 32 [0 ffffffff c 800] ------- [12:255 -1:255 32 0] 
r 0.329719565 _5_ RTR  --- 6 message 32 [0 ffffffff c 800] ------- [12:255 -1:255 32 0] 
r 0.329719687 _8_ RTR  --- 6 message 32 [0 ffffffff c 800] ------- [12:255 -1:255 32 0] 
s 0.356296747 _18_ RTR  --- 7 message 32 [0 0 0 0] ------- [18:255 -1:255 32 0] 
s 0.356851747 _18_ MAC  --- 7 message 90 [0 ffffffff 12 800] ------- [18:255 -1:255 32 0] 
r 0.357572068 _14_ MAC  --- 7 message 32 [0 ffffffff 12 800] ------- [18:255 -1:255 32 0] 
r 0.357572216 _15_ MAC  --- 7 message 32 [0 ffffffff 12 800] ------- [18:255 -1:255 32 0] 
r 0.357572284 _13_ MAC  --- 7 message 32 [0 ffffffff 12 800] ------- [18:255 -1:255 32 0] 
r 0.357572404 _16_ MAC  --- 7 message 32 [0 ffffffff 12 800] ------- [18:255 -1:255 32 0] 
r 0.357572434 _17_ MAC  --- 7 message 32 [0 ffffffff 12 800] ------- [18:255 -1:255 32 0] 
r 0.357572441 _19_ MAC  --- 7 message 32 [0 ffffffff 12 800] ------- [18:255 -1:255 32 0] 
r 0.357572557 _5_ MAC  --- 7 message 32 [0 ffffffff 12 800] ------- [18:255 -1:255 32 0] 
r 0.357597068 _14_ RTR  --- 7 message 32 [0 ffffffff 12 800] ------- [18:255 -1:255 32 0] 
r 0.357597216 _15_ RTR  --- 7 message 32 [0 ffffffff 12 800] ------- [18:255 -1:255 32 0] 
r 0.357597284 _13_ RTR  --- 7 message 32 [0 ffffffff 12 800] ------- [18:255 -1:255 32 0] 
r 0.357597404 _16_ RTR  --- 7 message 32 [0 ffffffff 12 800] ------- [18:255 -1:255 32 0] 
r 0.357597434 _17_ RTR  --- 7 message 32 [0 ffffffff 12 800] ------- [18:255 -1:255 32 0] 
r 0.357597441 _19_ RTR  --- 7 message 32 [0 ffffffff 12 800] ------- [18:255 -1:255 32 0] 
r 0.357597557 _5_ RTR  --- 7 message 32 [0 ffffffff 12 800] ------- [18:255 -1:255 32 0] 
s 0.477970060 _8_ RTR  --- 8 message 32 [0 0 0 0] ------- [8:255 -1:255 32 0] 
s 0.478205060 _8_ MAC  --- 8 message 90 [0 ffffffff 8 800] ------- [8:255 -1:255 32 0] 
r 0.478925539 _11_ MAC  --- 8 message 32 [0 ffffffff 8 800] ------- [8:255 -1:255 32 0] 
r 0.478925616 _10_ MAC  --- 8 message 32 [0 ffffffff 8 800] ------- [8:255 -1:255 32 0] 
r 0.478925636 _5_ MAC  --- 8 message 32 [0 ffffffff 8 800] ------- [8:255 -1:255 32 0] 
r 0.478925680 _9_ MAC  --- 8 message 32 [0 ffffffff 8 800] ------- [8:255 -1:255 32 0] 
r 0.478925749 _6_ MAC  --- 8 message 32 [0 ffffffff 8 800] ------- [8:255 -1:255 32 0] 
r 0.478925825 _7_ MAC  --- 8 message 32 [0 ffffffff 8 800] ------- [8:255 -1:255 32 0] 
r 0.478925850 _12_ MAC  --- 8 message 32 [0 ffffffff 8 800] ------- [8:255 -1:255 32 0] 
r 0.478950539 _11_ RTR  --- 8 message 32 [0 ffffffff 8 800] ------- [8:255 -1:255 32 0] 
r 0.478950616 _10_ RTR  --- 8 message 32 [0 ffffffff 8 800] ------- [8:255 -1:255 32 0] 
r 0.478950636 _5_ RTR  --- 8 message 32 [0 ffffffff 8 800] ------- [8:255 -1:255 32 0] 
r 0.478950680 _9_ RTR  --- 8 message 32 [0 ffffffff 8 800] ------- [8:255 -1:255 32 0] 
r 0.478950749 _6_ RTR  --- 8 message 32 [0 ffffffff 8 800] ------- [8:255 -1:255 32 0] 
r 0.478950825 _7_ RTR  --- 8 message 32 [0 ffffffff 8 800] ------- [8:255 -1:255 32 0] 
r 0.478950850 _12_ RTR  --- 8 message 32 [0 ffffffff 8 800] ------- [8:255 -1:255 32 0] 
s 0.618433690 _10_ RTR  --- 9 message 32 [0 0 0 0] ------- [10:255 -1:255 32 0] 
s 0.618508690 _10_ MAC  --- 9 message 90 [0 ffffffff a 800] ------- [10:255 -1:255 32 0] 
r 0.619229024 _11_ MAC  --- 9 message 32 [0 ffffffff a 800] ------- [10:255 -1:255 32 0] 
r 0.619229246 _8_ MAC  --- 9 message 32 [0 ffffffff a 800] ------- [10:255 -1:255 32 0] 
r 0.619229247 _12_ MAC  --- 9 message 32 [0 ffffffff a 800] ------- [10:255 -1:255 32 0] 
r 0.619254024 _11_ RTR  --- 9 message 32 [0 ffffffff a 800] ------- [10:255 -1:255 32 0] 
r 0.619254246 _8_ RTR  --- 9 message 32 [0 ffffffff a 800] ------- [10:255 -1:255 32 0] 
r 0.619254247 _12_ RTR  --- 9 message 32 [0 ffffffff a 800] ------- [10:255 -1:255 32 0] 
s 0.635391705 _6_ RTR  --- 10 message 32 [0 0 0 0] ------- [6:255 -1:255 32 0] 
s 0.635486705 _6_ MAC  --- 10 message 90 [0 ffffffff 6 800] ------- [6:255 -1:255 32 0] 
r 0.636207019 _4_ MAC  --- 10 message 32 [0 ffffffff 6 800] ------- [6:255 -1:255 32 0] 
r 0.636207196 _3_ MAC  --- 10 message 32 [0 ffffffff 6 800] ------- [6:255 -1:255 32 0] 
r 0.636207223 _7_ MAC  --- 10 message 32 [0 ffffffff 6 800] ------- [6:255 -1:255 32 0] 
r 0.636207370 _19_ MAC  --- 10 message 32 [0 ffffffff 6 800] ------- [6:255 -1:255 32 0] 
r 0.636207394 _8_ MAC  --- 10 message 32 [0 ffffffff 6 800] ------- [6:255 -1:255 32 0] 
r 0.636207436 _5_ MAC  --- 10 message 32 [0 ffffffff 6 800] ------- [6:255 -1:255 32 0] 
r 0.636232019 _4_ RTR  --- 10 message 32 [0 ffffffff 6 800] ------- [6:255 -1:255 32 0] 
r 0.636232196 _3_ RTR  --- 10 message 32 [0 ffffffff 6 800] ------- [6:255 -1:255 32 0] 
r 0.636232223 _7_ RTR  --- 10 message 32 [0 ffffffff 6 800] ------- [6:255 -1:255 32 0] 
r 0.636232370 _19_ RTR  --- 10 message 32 [0 ffffffff 6 800] ------- [6:255 -1:255 32 0] 
r 0.636232394 _8_ RTR  --- 10 message 32 [0 ffffffff 6 800] ------- [6:255 -1:255 32 0] 
r 0.636232436 _5_ RTR  --- 10 message 32 [0 ffffffff 6 800] ------- [6:255 -1:255 32 0] 
s 0.849100751 _17_ RTR  --- 11 message 32 [0 0 0 0] ------- [17:255 -1:255 32 0] 
s 0.849475751 _17_ MAC  --- 11 message 90 [0 ffffffff 11 800] ------- [17:255 -1:255 32 0] 
r 0.850196012 _15_ MAC  --- 11 message 32 [0 ffffffff 11 800] ------- [17:255 -1:255 32 0] 
r 0.850196112 _16_ MAC  --- 11 message 32 [0 ffffffff 11 800] ------- [17:255 -1:255 32 0] 
r 0.850196420 _14_ MAC  --- 11 message 32 [0 ffffffff 11 800] ------- [17:255 -1:255 32 0] 
r 0.850196439 _18_ MAC  --- 11 message 32 [0 ffffffff 11 800] ------- [17:255 -1:255 32 0] 
r 0.850196557 _19_ MAC  --- 11 message 32 [0 ffffffff 11 800] ------- [17:255 -1:255 32 0] 
r 0.850221012 _15_ RTR  --- 11 message 32 [0 ffffffff 11 800] ------- [17:255 -1:255 32 0] 
r 0.850221112 _16_ RTR  --- 11 message 32 [0 ffffffff 11 800] ------- [17:255 -1:255 32 0] 
r 0.850221420 _14_ RTR  --- 11 message 32 [0 ffffffff 11 800] ------- [17:255 -1:255 32 0] 
r 0.850221439 _18_ RTR  --- 11 message 32 [0 ffffffff 11 800] ------- [17:255 -1:255 32 0] 
r 0.850221557 _19_ RTR  --- 11 message 32 [0 ffffffff 11 800] ------- [17:255 -1:255 32 0] 
s 0.882848098 _4_ RTR  --- 12 message 32 [0 0 0 0] ------- [4:255 -1:255 32 0] 
s 0.883123098 _4_ MAC  --- 12 message 90 [0 ffffffff 4 800] ------- [4:255 -1:255 32 0] 
r 0.883843412 _6_ MAC  --- 12 message 32 [0 ffffffff 4 800] ------- [4:255 -1:255 32 0] 
r 0.883843532 _19_ MAC  --- 12 message 32 [0 ffffffff 4 800] ------- [4:255 -1:255 32 0] 
r 0.883843602 _3_ MAC  --- 12 message 32 [0 ffffffff 4 800] ------- [4:255 -1:255 32 0] 
r 0.883843727 _1_ MAC  --- 12 message 32 [0 ffffffff 4 800] ------- [4:255 -1:255 32 0] 
r 0.883843798 _5_ MAC  --- 12 message 32 [0 ffffffff 4 800] ------- [4:255 -1:255 32 0] 
r 0.883843829 _16_ MAC  --- 12 message 32 [0 ffffffff 4 800] ------- [4:255 -1:255 32 0] 
r 0.883843905 _14_ MAC  --- 12 message 32 [0 ffffffff 4 800] ------- [4:255 -1:255 32 0] 
r 0.883843919 _2_ MAC  --- 12 message 32 [0 ffffffff 4 800] ------- [4:255 -1:255 32 0] 
r 0.883843922 _7_ MAC  --- 12 message 32 [0 ffffffff 4 800] ------- [4:255 -1:255 32 0] 
r 0.883868412 _6_ RTR  --- 12 message 32 [0 ffffffff 4 800] ------- [4:255 -1:255 32 0] 
r 0.883868532 _19_ RTR  --- 12 message 32 [0 ffffffff 4 800] ------- [4:255 -1:255 32 0] 
r 0.883868602 _3_ RTR  --- 12 message 32 [0 ffffffff 4 800] ------- [4:255 -1:255 32 0] 
r 0.883868727 _1_ RTR  --- 12 message 32 [0 ffffffff 4 800] ------- [4:255 -1:255 32 0] 
r 0.883868798 _5_ RTR  --- 12 message 32 [0 ffffffff 4 800] ------- [4:255 -1:255 32 0] 
r 0.883868829 _16_ RTR  --- 12 message 32 [0 ffffffff 4 800] ------- [4:255 -1:255 32 0] 
r 0.883868905 _14_ RTR  --- 12 message 32 [0 ffffffff 4 800] ------- [4:255 -1:255 32 0] 
r 0.883868919 _2_ RTR  --- 12 message 32 [0 ffffffff 4 800] ------- [4:255 -1:255 32 0] 
r 0.883868922 _7_ RTR  --- 12 message 32 [0 ffffffff 4 800] ------- [4:255 -1:255 32 0] 
s 1.000000000 _0_ AGT  --- 13 cbr 1000 [0 0 0 0] ------- [0:0 9:0 32 0] [0] 0 0
r 1.000000000 _0_ RTR  --- 13 cbr 1000 [0 0 0 0] ------- [0:0 9:0 32 0] [0] 0 0
s 1.000000000 _14_ AGT  --- 14 cbr 1000 [0 0 0 0] ------- [14:0 10:0 32 0] [0] 0 0
r 1.000000000 _14_ RTR  --- 14 cbr 1000 [0 0 0 0] ------- [14:0 10:0 32 0] [0] 0 0
s 1.050000000 _0_ AGT  --- 15 cbr 1000 [0 0 0 0] ------- [0:0 9:0 32 0] [1] 0 0
r 1.050000000 _0_ RTR  --- 15 cbr 1000 [0 0 0 0] ------- [0:0 9:0 32 0] [1] 0 0
s 1.050000000 _14_ AGT  --- 16 cbr 1000 [0 0 0 0] ------- [14:0 10:0 32 0] [1] 0 0
r 1.050000000 _14_ RTR  --- 16 cbr 1000 [0 0 0 0] ------- [14:0 10:0 32 0] [1] 0 0
s 1.100000000 _0_ AGT  --- 17 cbr 1000 [0 0 0 0] ------- [0:0 9:0 32 0] [2] 0 0
r 1.100000000 _0_ RTR  --- 17 cbr 1000 [0 0 0 0] ------- [0:0 9:0 32 0] [2] 0 0
s 1.100000000 _14_ AGT  --- 18 cbr 1000 [0 0 0 0] ------- [14:0 10:0 32 0] [2] 0 0
r 1.100000000 _14_ RTR  --- 18 cbr 1000 [0 0 0 0] ------- [14:0 10:0 32 0] [2] 0 0
s 1.115973632 _1_ RTR  --- 19 message 32 [0 0 0 0] ------- [1:255 -1:255 32 0] 
s 1.116248632 _1_ MAC  --- 19 message 90 [0 ffffffff 1 800] ------- [1:255 -1:255 32 0] 
r 1.116969079 _2_ MAC  --- 19 message 32 [0 ffffffff 1 800] ------- [1:255 -1:255 32 0] 
r 1.116969167 _0_ MAC  --- 19 message 32 [0 ffffffff 1 800] ------- [1:255 -1:255 32 0] 
r 1.116969255 _3_ MAC  --- 19 message 32 [0 ffffffff 1 800] ------- [1:255 -1:255 32 0] 
r 1.116969262 _4_ MAC  --- 19 message 32 [0 ffffffff 1 800] ------- [1:255 -1:255 32 0] 
r 1.116969350 _16_ MAC  --- 19 message 32 [0 ffffffff 1 800] ------- [1:255 -1:255 32 0] 
r 1.116969460 _19_ MAC  --- 19 message 32 [0 ffffffff 1 800] ------- [1:255 -1:255 32 0] 
r 1.116994079 _2_ RTR  --- 19 message 32 [0 ffffffff 1 800] ------- [1:255 -1:255 32 0] 
r 1.116994167 _0_ RTR  --- 19 message 32 [0 ffffffff 1 800] ------- [1:255 -1:255 32 0] 
r 1.116994255 _3_ RTR  --- 19 message 32 [0 ffffffff 1 800] ------- [1:255 -1:255 32 0] 
r 1.116994262 _4_ RTR  --- 19 message 32 [0 ffffffff 1 800] ------- [1:255 -1:255 32 0] 
r 1.116994350 _16_ RTR  --- 19 message 32 [0 ffffffff 1 800] ------- [1:255 -1:255 32 0] 
r 1.116994460 _19_ RTR  --- 19 message 32 [0 ffffffff 1 800] ------- [1:255 -1:255 32 0] 
s 1.150000000 _0_ AGT  --- 20 cbr 1000 [0 0 0 0] ------- [0:0 9:0 32 0] [3] 0 0
r 1.150000000 _0_ RTR  --- 20 cbr 1000 [0 0 0 0] ------- [0:0 9:0 32 0] [3] 0 0
s 1.150000000 _14_ AGT  --- 21 cbr 1000 [0 0 0 0] ------- [14:0 10:0 32 0] [3] 0 0
r 1.150000000 _14_ RTR  --- 21 cbr 1000 [0 0 0 0] ------- [14:0 10:0 32 0] [3] 0 0
s 1.200000000 _0_ AGT  --- 22 cbr 1000 [0 0 0 0] ------- [0:0 9:0 32 0] [4] 0 0
r 1.200000000 _0_ RTR  --- 22 cbr 1000 [0 0 0 0] ------- [0:0 9:0 32 0] [4] 0 0
s 1.200000000 _14_ AGT  --- 23 cbr 1000 [0 0 0 0] ------- [14:0 10:0 32 0] [4] 0 0
r 1.200000000 _14_ RTR  --- 23 cbr 1000 [0 0 0 0] ------- [14:0 10:0 32 0] [4] 0 0
s 1.250000000 _0_ AGT  --- 24 cbr 1000 [0 0 0 0] ------- [0:0 9:0 32 0] [5] 0 0
r 1.250000000 _0_ RTR  --- 24 cbr 1000 [0 0 0 0] ------- [0:0 9:0 32 0] [5] 0 0
D 1.250000000 _0_ RTR  IFQ 13 cbr 1020 [0 0 0 0] ------- [0:0 9:0 32 0] [0] 0 0
s 1.250000000 _14_ AGT  --- 25 cbr 1000 [0 0 0 0] ------- [14:0 10:0 32 0] [5] 0 0
r 1.250000000 _14_ RTR  --- 25 cbr 1000 [0 0 0 0] ------- [14:0 10:0 32 0] [5] 0 0
D 1.250000000 _14_ RTR  IFQ 14 cbr 1020 [0 0 0 0] ------- [14:0 10:0 32 0] [0] 0 0
s 1.285010704 _9_ RTR  --- 26 message 32 [0 0 0 0] ------- [9:255 -1:255 32 0] 
s 1.285665704 _9_ MAC  --- 26 message 90 [0 ffffffff 9 800] ------- [9:255 -1:255 32 0] 
s 1.285996443 _14_ RTR  --- 27 message 32 [0 0 0 0] ------- [14:255 -1:255 32 0] 
r 1.286386286 _11_ MAC  --- 26 message 32 [0 ffffffff 9 800] ------- [9:255 -1:255 32 0] 
r 1.286386290 _7_ MAC  --- 26 message 32 [0 ffffffff 9 800] ------- [9:255 -1:255 32 0] 
r 1.286386324 _8_ MAC  --- 26 message 32 [0 ffffffff 9 800] ------- [9:255 -1:255 32 0] 
r 1.286411286 _11_ RTR  --- 26 message 32 [0 ffffffff 9 800] ------- [9:255 -1:255 32 0] 
r 1.286411290 _7_ RTR  --- 26 message 32 [0 ffffffff 9 800] ------- [9:255 -1:255 32 0] 
r 1.286411324 _8_ RTR  --- 26 message 32 [0 ffffffff 9 800] ------- [9:255 -1:255 32 0] 
s 1.286921418 _14_ MAC  --- 27 message 90 [0 ffffffff e 800] ------- [14:255 -1:255 32 0] 
r 1.287641739 _18_ MAC  --- 27 message 32 [0 ffffffff e 800] ------- [14:255 -1:255 32 0] 
r 1.287641791 _19_ MAC  --- 27 message 32 [0 ffffffff e 800] ------- [14:255 -1:255 32 0] 
r 1.287641826 _15_ MAC  --- 27 message 32 [0 ffffffff e 800] ------- [14:255 -1:255 32 0] 
r 1.287641889 _16_ MAC  --- 27 message 32 [0 ffffffff e 800] ------- [14:255 -1:255 32 0] 
r 1.287641990 _5_ MAC  --- 27 message 32 [0 ffffffff e 800] ------- [14:255 -1:255 32 0] 
r 1.287642000 _13_ MAC  --- 27 message 32 [0 ffffffff e 800] ------- [14:255 -1:255 32 0] 
r 1.287642087 _17_ MAC  --- 27 message 32 [0 ffffffff e 800] ------- [14:255 -1:255 32 0] 
r 1.287642224 _4_ MAC  --- 27 message 32 [0 ffffffff e 800] ------- [14:255 -1:255 32 0] 
r 1.287666739 _18_ RTR  --- 27 message 32 [0 ffffffff e 800] ------- [14:255 -1:255 32 0] 
r 1.287666791 _19_ RTR  --- 27 message 32 [0 ffffffff e 800] ------- [14:255 -1:255 32 0] 
r 1.287666826 _15_ RTR  --- 27 message 32 [0 ffffffff e 800] ------- [14:255 -1:255 32 0] 
r 1.287666889 _16_ RTR  --- 27 message 32 [0 ffffffff e 800] ------- [14:255 -1:255 32 0] 
r 1.287666990 _5_ RTR  --- 27 message 32 [0 ffffffff e 800] ------- [14:255 -1:255 32 0] 
r 1.287667000 _13_ RTR  --- 27 message 32 [0 ffffffff e 800] ------- [14:255 -1:255 32 0] 
r 1.287667087 _17_ RTR  --- 27 message 32 [0 ffffffff e 800] ------- [14:255 -1:255 32 0] 
r 1.287667224 _4_ RTR  --- 27 message 32 [0 ffffffff e 800] ------- [14:255 -1:255 32 0] 
s 1.300000000 _0_ AGT  --- 28 cbr 1000 [0 0 0 0] ------- [0:0 9:0 32 0] [6] 0 0
r 1.300000000 _0_ RTR  --- 28 cbr 1000 [0 0 0 0] ------- [0:0 9:0 32 0] [6] 0 0
D 1.300000000 _0_ RTR  IFQ 15 cbr 1020 [0 0 0 0] ------- [0:0 9:0 32 0] [1] 0 0
s 1.300000000 _14_ AGT  --- 29 cbr 1000 [0 0 0 0] ------- [14:0 10:0 32 0] [6] 0 0
r 1.300000000 _14_ RTR  --- 29 cbr 1000 [0 0 0 0] ------- [14:0 10:0 32 0] [6] 0 0
D 1.300000000 _14_ RTR  IFQ 16 cbr 1020 [0 0 0 0] ------- [14:0 10:0 32 0] [1] 0 0
s 1.350000000 _0_ AGT  --- 30 cbr 1000 [0 0 0 0] ------- [0:0 9:0 32 0] [7] 0 0
r 1.350000000 _0_ RTR  --- 30 cbr 1000 [0 0 0 0] ------- [0:0 9:0 32 0] [7] 0 0
D 1.350000000 _0_ RTR  IFQ 17 cbr 1020 [0 0 0 0] ------- [0:0 9:0 32 0] [2] 0 0
s 1.350000000 _14_ AGT  --- 31 cbr 1000 [0 0 0 0] ------- [14:0 10:0 32 0] [7] 0 0
r 1.350000000 _14_ RTR  --- 31 cbr 1000 [0 0 0 0] ------- [14:0 10:0 32 0] [7] 0 0
D 1.350000000 _14_ RTR  IFQ 18 cbr 1020 [0 0 0 0] ------- [14:0 10:0 32 0] [2] 0 0
s 1.400000000 _0_ AGT  --- 32 cbr 1000 [0 0 0 0] ------- [0:0 9:0 32 0] [8] 0 0
r 1.400000000 _0_ RTR  --- 32 cbr 1000 [0 0 0 0] ------- [0:0 9:0 32 0] [8] 0 0
D 1.400000000 _0_ RTR  IFQ 20 cbr 1020 [0 0 0 0] ------- [0:0 9:0 32 0] [3] 0 0
s 1.400000000 _14_ AGT  --- 33 cbr 1000 [0 0 0 0] ------- [14:0 10:0 32 0] [8] 0 0
r 1.400000000 _14_ RTR  --- 33 cbr 1000 [0 0 0 0] ------- [14:0 10:0 32 0] [8] 0 0
D 1.400000000 _14_ RTR  IFQ 21 cbr 1020 [0 0 0 0] ------- [14:0 10:0 32 0] [3] 0 0
s 1.450000000 _0_ AGT  --- 34 cbr 1000 [0 0 0 0] ------- [0:0 9:0 32 0] [9] 0 0
r 1.450000000 _0_ RTR  --- 34 cbr 1000 [0 0 0 0] ------- [0:0 9:0 32 0] [9] 0 0
D 1.450000000 _0_ RTR  IFQ 22 cbr 1020 [0 0 0 0] ------- [0:0 9:0 32 0] [4] 0 0
s 1.450000000 _14_ AGT  --- 35 cbr 1000 [0 0 0 0] ------- [14:0 10:0 32 0] [9] 0 0
r 1.450000000 _14_ RTR  --- 35 cbr 1000 [0 0 0 0] ------- [14:0 10:0 32 0] [9] 0 0
D 1.450000000 _14_ RTR  IFQ 23 cbr 1020 [0 0 0 0] ------- [14:0 10:0 32 0] [4] 0 0
s 1.500000000 _0_ AGT  --- 36 cbr 1000 [0 0 0 0] ------- [0:0 9:0 32 0] [10] 0 0
r 1.500000000 _0_ RTR  --- 36 cbr 1000 [0 0 0 0] ------- [0:0 9:0 32 0] [10] 0 0
D 1.500000000 _0_ RTR  IFQ 24 cbr 1020 [0 0 0 0] ------- [0:0 9:0 32 0] [5] 0 0
s 1.500000000 _14_ AGT  --- 37 cbr 1000 [0 0 0 0] ------- [14:0 10:0 32 0] [10] 0 0
r 1.500000000 _14_ RTR  --- 37 cbr 1000 [0 0 0 0] ------- [14:0 10:0 32 0] [10] 0 0
D 1.500000000 _14_ RTR  IFQ 25 cbr 1020 [0 0 0 0] ------- [14:0 10:0 32 0] [5] 0 0
s 1.550000000 _0_ AGT  --- 38 cbr 1000 [0 0 0 0] ------- [0:0 9:0 32 0] [11] 0 0
r 1.550000000 _0_ RTR  --- 38 cbr 1000 [0 0 0 0] ------- [0:0 9:0 32 0] [11] 0 0
D 1.550000000 _0_ RTR  IFQ 28 cbr 1020 [0 0 0 0] ------- [0:0 9:0 32 0] [6] 0 0
s 1.550000000 _14_ AGT  --- 39 cbr 1000 [0 0 0 0] ------- [14:0 10:0 32 0] [11] 0 0
r 1.550000000 _14_ RTR  --- 39 cbr 1000 [0 0 0 0] ------- [14:0 10:0 32 0] [11] 0 0
D 1.550000000 _14_ RTR  IFQ 29 cbr 1020 [0 0 0 0] ------- [14:0 10:0 32 0] [6] 0 0
s 1.600000000 _0_ AGT  --- 41 cbr 1000 [0 0 0 0] ------- [0:0 9:0 32 0] [12] 0 0
r 1.600000000 _0_ RTR  --- 41 cbr 1000 [0 0 0 0] ------- [0:0 9:0 32 0] [12] 0 0
D 1.600000000 _0_ RTR  IFQ 30 cbr 1020 [0 0 0 0] ------- [0:0 9:0 32 0] [7] 0 0
s 1.600000000 _14_ AGT  --- 42 cbr 1000 [0 0 0 0] ------- [14:0 10:0 32 0] [12] 0 0
r 1.600000000 _14_ RTR  --- 42 cbr 1000 [0 0 0 0] ------- [14:0 10:0 32 0] [12] 0 0
D 1.600000000 _14_ RTR  IFQ 31 cbr 1020 [0 0 0 0] ------- [14:0 10:0 32 0] [7] 0 0
s 1.606148657 _5_ RTR  --- 40 message 32 [0 0 0 0] ------- [5:255 -1:255 32 0] 
s 1.606523657 _5_ MAC  --- 40 message 90 [0 ffffffff 5 800] ------- [5:255 -1:255 32 0] 
r 1.607244132 _19_ MAC  --- 40 message 32 [0 ffffffff 5 800] ------- [5:255 -1:255 32 0] 
r 1.607244230 _14_ MAC  --- 40 message 32 [0 ffffffff 5 800] ------- [5:255 -1:255 32 0] 
r 1.607244233 _8_ MAC  --- 40 message 32 [0 ffffffff 5 800] ------- [5:255 -1:255 32 0] 
r 1.607244251 _13_ MAC  --- 40 message 32 [0 ffffffff 5 800] ------- [5:255 -1:255 32 0] 
r 1.607244326 _12_ MAC  --- 40 message 32 [0 ffffffff 5 800] ------- [5:255 -1:255 32 0] 
r 1.607244358 _4_ MAC  --- 40 message 32 [0 ffffffff 5 800] ------- [5:255 -1:255 32 0] 
r 1.607244388 _6_ MAC  --- 40 message 32 [0 ffffffff 5 800] ------- [5:255 -1:255 32 0] 
r 1.607244468 _18_ MAC  --- 40 message 32 [0 ffffffff 5 800] ------- [5:255 -1:255 32 0] 
r 1.607269132 _19_ RTR  --- 40 message 32 [0 ffffffff 5 800] ------- [5:255 -1:255 32 0] 
r 1.607269230 _14_ RTR  --- 40 message 32 [0 ffffffff 5 800] ------- [5:255 -1:255 32 0] 
r 1.607269233 _8_ RTR  --- 40 message 32 [0 ffffffff 5 800] ------- [5:255 -1:255 32 0] 
r 1.607269251 _13_ RTR  --- 40 message 32 [0 ffffffff 5 800] ------- [5:255 -1:255 32 0] 
r 1.607269326 _12_ RTR  --- 40 message 32 [0 ffffffff 5 800] ------- [5:255 -1:255 32 0] 
r 1.607269358 _4_ RTR  --- 40 message 32 [0 ffffffff 5 800] ------- [5:255 -1:255 32 0] 
r 1.607269388 _6_ RTR  --- 40 message 32 [0 ffffffff 5 800] ------- [5:255 -1:255 32 0] 
r 1.607269468 _18_ RTR  --- 40 message 32 [0 ffffffff 5 800] ------- [5:255 -1:255 32 0] 
s 1.638413333 _7_ RTR  --- 43 message 32 [0 0 0 0] ------- [7:255 -1:255 32 0] 
s 1.639068333 _7_ MAC  --- 43 message 90 [0 ffffffff 7 800] ------- [7:255 -1:255 32 0] 
r 1.639788851 _6_ MAC  --- 43 message 32 [0 ffffffff 7 800] ------- [7:255 -1:255 32 0] 
r 1.639788919 _9_ MAC  --- 43 message 32 [0 ffffffff 7 800] ------- [7:255 -1:255 32 0] 
r 1.639789041 _3_ MAC  --- 43 message 32 [0 ffffffff 7 800] ------- [7:255 -1:255 32 0] 
r 1.639789098 _8_ MAC  --- 43 message 32 [0 ffffffff 7 800] ------- [7:255 -1:255 32 0] 
r 1.639789157 _4_ MAC  --- 43 message 32 [0 ffffffff 7 800] ------- [7:255 -1:255 32 0] 
r 1.639813851 _6_ RTR  --- 43 message 32 [0 ffffffff 7 800] ------- [7:255 -1:255 32 0] 
r 1.639813919 _9_ RTR  --- 43 message 32 [0 ffffffff 7 800] ------- [7:255 -1:255 32 0] 
r 1.639814041 _3_ RTR  --- 43 message 32 [0 ffffffff 7 800] ------- [7:255 -1:255 32 0] 
r 1.639814098 _8_ RTR  --- 43 message 32 [0 ffffffff 7 800] ------- [7:255 -1:255 32 0] 
r 1.639814157 _4_ RTR  --- 43 message 32 [0 ffffffff 7 800] ------- [7:255 -1:255 32 0] 
s 1.650000000 _0_ AGT  --- 44 cbr 1000 [0 0 0 0] ------- [0:0 9:0 32 0] [13] 0 0
r 1.650000000 _0_ RTR  --- 44 cbr 1000 [0 0 0 0] ------- [0:0 9:0 32 0] [13] 0 0
D 1.650000000 _0_ RTR  IFQ 32 cbr 1020 [0 0 0 0] ------- [0:0 9:0 32 0] [8] 0 0
s 1.650000000 _14_ AGT  --- 45 cbr 1000 [0 0 0 0] ------- [14:0 10:0 32 0] [13] 0 0
r 1.650000000 _14_ RTR  --- 45 cbr 1000 [0 0 0 0] ------- [14:0 10:0 32 0] [13] 0 0
D 1.650000000 _14_ RTR  IFQ 33 cbr 1020 [0 0 0 0] ------- [14:0 10:0 32 0] [8] 0 0
s 1.675969218 _11_ RTR  --- 46 message 32 [0 0 0 0] ------- [11:255 -1:255 32 0] 
s 1.676484218 _11_ MAC  --- 46 message 90 [0 ffffffff b 800] ------- [11:255 -1:255 32 0] 
r 1.677204552 _10_ MAC  --- 46 message 32 [0 ffffffff b 800] ------- [11:255 -1:255 32 0] 
r 1.677204696 _8_ MAC  --- 46 message 32 [0 ffffffff b 800] ------- [11:255 -1:255 32 0] 
r 1.677204800 _9_ MAC  --- 46 message 32 [0 ffffffff b 800] ------- [11:255 -1:255 32 0] 
r 1.677229552 _10_ RTR  --- 46 message 32 [0 ffffffff b 800] ------- [11:255 -1:255 32 0] 
r 1.677229696 _8_ RTR  --- 46 message 32 [0 ffffffff b 800] ------- [11:255 -1:255 32 0] 
r 1.677229800 _9_ RTR  --- 46 message 32 [0 ffffffff b 800] ------- [11:255 -1:255 32 0] 
s 1.700000000 _0_ AGT  --- 47 cbr 1000 [0 0 0 0] ------- [0:0 9:0 32 0] [14] 0 0
r 1.700000000 _0_ RTR  --- 47 cbr 1000 [0 0 0 0] ------- [0:0 9:0 32 0] [14] 0 0
D 1.700000000 _0_ RTR  IFQ 34 cbr 1020 [0 0 0 0] ------- [0:0 9:0 32 0] [9] 0 0
s 1.700000000 _14_ AGT  --- 48 cbr 1000 [0 0 0 0] ------- [14:0 10:0 32 0] [14] 0 0
r 1.700000000 _14_ RTR  --- 48 cbr 1000 [0 0 0 0] ------- [14:0 10:0 32 0] [14] 0 0
D 1.700000000 _14_ RTR  IFQ 35 cbr 1020 [0 0 0 0] ------- [14:0 10:0 32 0] [9] 0 0
s 1.723107868 _16_ RTR  --- 49 message 32 [0 0 0 0] ------- [16:255 -1:255 32 0] 
s 1.723402868 _16_ MAC  --- 49 message 90 [0 ffffffff 10 800] ------- [16:255 -1:255 32 0] 
r 1.724123115 _15_ MAC  --- 49 message 32 [0 ffffffff 10 800] ------- [16:255 -1:255 32 0] 
r 1.724123229 _17_ MAC  --- 49 message 32 [0 ffffffff 10 800] ------- [16:255 -1:255 32 0] 
r 1.724123335 _19_ MAC  --- 49 message 32 [0 ffffffff 10 800] ------- [16:255 -1:255 32 0] 
r 1.724123339 _14_ MAC  --- 49 message 32 [0 ffffffff 10 800] ------- [16:255 -1:255 32 0] 
r 1.724123525 _18_ MAC  --- 49 message 32 [0 ffffffff 10 800] ------- [16:255 -1:255 32 0] 
r 1.724123585 _1_ MAC  --- 49 message 32 [0 ffffffff 10 800] ------- [16:255 -1:255 32 0] 
r 1.724123599 _4_ MAC  --- 49 message 32 [0 ffffffff 10 800] ------- [16:255 -1:255 32 0] 
r 1.724148115 _15_ RTR  --- 49 message 32 [0 ffffffff 10 800] ------- [16:255 -1:255 32 0] 
r 1.724148229 _17_ RTR  --- 49 message 32 [0 ffffffff 10 800] ------- [16:255 -1:255 32 0] 
r 1.724148335 _19_ RTR  --- 49 message 32 [0 ffffffff 10 800] ------- [16:255 -1:255 32 0] 
r 1.724148339 _14_ RTR  --- 49 message 32 [0 ffffffff 10 800] ------- [16:255 -1:255 32 0] 
r 1.724148525 _18_ RTR  --- 49 message 32 [0 ffffffff 10 800] ------- [16:255 -1:255 32 0] 
r 1.724148585 _1_ RTR  --- 49 message 32 [0 ffffffff 10 800] ------- [16:255 -1:255 32 0] 