Sconfig 0.00000 tap: on snoop: rts? on errs? on
Sconfig 0.00000 salvage: on !bd replies? on
Sconfig 0.00000 grat error: on grat reply: on
Sconfig 0.00000 $reply for props: on ring 0 search: on
Sconfig 0.00000 using MOBICACHE
s 1.000000000 _0_ AGT  --- 0 cbr 1000 [0 0 0 0] ------- [0:0 9:0 32 0] [0] 0 0
r 1.000000000 _0_ RTR  --- 0 cbr 1000 [0 0 0 0] ------- [0:0 9:0 32 0] [0] 0 0
s 1.000000000 _14_ AGT  --- 2 cbr 1000 [0 0 0 0] ------- [14:0 10:0 32 0] [0] 0 0
r 1.000000000 _14_ RTR  --- 2 cbr 1000 [0 0 0 0] ------- [14:0 10:0 32 0] [0] 0 0
s 1.004336043 _14_ RTR  --- 3 DSR 32 [0 0 0 0] ------- [14:255 10:255 32 0] 1 [1 1] [0 1 0 0->0] [0 0 0 0->0]
s 1.004571043 _14_ MAC  --- 3 DSR 90 [0 ffffffff e 800] ------- [14:255 10:255 32 0] 1 [1 1] [0 1 0 0->0] [0 0 0 0->0]
r 1.005291365 _18_ MAC  --- 3 DSR 32 [0 ffffffff e 800] ------- [14:255 10:255 32 0] 1 [1 1] [0 1 0 0->0] [0 0 0 0->0]
r 1.005291417 _19_ MAC  --- 3 DSR 32 [0 ffffffff e 800] ------- [14:255 10:255 32 0] 1 [1 1] [0 1 0 0->0] [0 0 0 0->0]
r 1.005291452 _15_ MAC  --- 3 DSR 32 [0 ffffffff e 800] ------- [14:255 10:255 32 0] 1 [1 1] [0 1 0 0->0] [0 0 0 0->0]
r 1.005291514 _16_ MAC  --- 3 DSR 32 [0 ffffffff e 800] ------- [14:255 10:255 32 0] 1 [1 1] [0 1 0 0->0] [0 0 0 0->0]
r 1.005291616 _5_ MAC  --- 3 DSR 32 [0 ffffffff e 800] ------- [14:255 10:255 32 0] 1 [1 1] [0 1 0 0->0] [0 0 0 0->0]
r 1.005291625 _13_ MAC  --- 3 DSR 32 [0 ffffffff e 800] ------- [14:255 10:255 32 0] 1 [1 1] [0 1 0 0->0] [0 0 0 0->0]
r 1.005291713 _17_ MAC  --- 3 DSR 32 [0 ffffffff e 800] ------- [14:255 10:255 32 0] 1 [1 1] [0 1 0 0->0] [0 0 0 0->0]
r 1.005291850 _4_ MAC  --- 3 DSR 32 [0 ffffffff e 800] ------- [14:255 10:255 32 0] 1 [1 1] [0 1 0 0->0] [0 0 0 0->0]
r 1.005316365 _18_ RTR  --- 3 DSR 32 [0 ffffffff e 800] ------- [14:255 10:255 32 0] 1 [1 1] [0 1 0 0->0] [0 0 0 0->0]
r 1.005316417 _19_ RTR  --- 3 DSR 32 [0 ffffffff e 800] ------- [14:255 10:255 32 0] 1 [1 1] [0 1 0 0->0] [0 0 0 0->0]
r 1.005316452 _15_ RTR  --- 3 DSR 32 [0 ffffffff e 800] ------- [14:255 10:255 32 0] 1 [1 1] [0 1 0 0->0] [0 0 0 0->0]
r 1.005316514 _16_ RTR  --- 3 DSR 32 [0 ffffffff e 800] ------- [14:255 10:255 32 0] 1 [1 1] [0 1 0 0->0] [0 0 0 0->0]
r 1.005316616 _5_ RTR  --- 3 DSR 32 [0 ffffffff e 800] ------- [14:255 10:255 32 0] 1 [1 1] [0 1 0 0->0] [0 0 0 0->0]
r 1.005316625 _13_ RTR  --- 3 DSR 32 [0 ffffffff e 800] ------- [14:255 10:255 32 0] 1 [1 1] [0 1 0 0->0] [0 0 0 0->0]
r 1.005316713 _17_ RTR  --- 3 DSR 32 [0 ffffffff e 800] ------- [14:255 10:255 32 0] 1 [1 1] [0 1 0 0->0] [0 0 0 0->0]
r 1.005316850 _4_ RTR  --- 3 DSR 32 [0 ffffffff e 800] ------- [14:255 10:255 32 0] 1 [1 1] [0 1 0 0->0] [0 0 0 0->0]
s 1.009047872 _0_ RTR  --- 1 DSR 32 [0 0 0 0] ------- [0:255 9:255 32 0] 1 [1 1] [0 1 0 0->0] [0 0 0 0->0]
s 1.009462872 _0_ MAC  --- 1 DSR 90 [0 ffffffff 0 800] ------- [0:255 9:255 32 0] 1 [1 1] [0 1 0 0->0] [0 0 0 0->0]
r 1.010183407 _1_ MAC  --- 1 DSR 32 [0 ffffffff 0 800] ------- [0:255 9:255 32 0] 1 [1 1] [0 1 0 0->0] [0 0 0 0->0]
r 1.010183665 _2_ MAC  --- 1 DSR 32 [0 ffffffff 0 800] ------- [0:255 9:255 32 0] 1 [1 1] [0 1 0 0->0] [0 0 0 0->0]
r 1.010208407 _1_ RTR  --- 1 DSR 32 [0 ffffffff 0 800] ------- [0:255 9:255 32 0] 1 [1 1] [0 1 0 0->0] [0 0 0 0->0]
r 1.010208665 _2_ RTR  --- 1 DSR 32 [0 ffffffff 0 800] ------- [0:255 9:255 32 0] 1 [1 1] [0 1 0 0->0] [0 0 0 0->0]
s 1.050000000 _0_ AGT  --- 6 cbr 1000 [0 0 0 0] ------- [0:0 9:0 32 0] [1] 0 0
r 1.050000000 _0_ RTR  --- 6 cbr 1000 [0 0 0 0] ------- [0:0 9:0 32 0] [1] 0 0
s 1.050000000 _14_ AGT  --- 8 cbr 1000 [0 0 0 0] ------- [14:0 10:0 32 0] [1] 0 0
r 1.050000000 _14_ RTR  --- 8 cbr 1000 [0 0 0 0] ------- [14:0 10:0 32 0] [1] 0 0
s 1.051868501 _0_ RTR  --- 7 DSR 32 [0 0 0 0] ------- [0:255 9:255 32 0] 1 [1 2] [0 2 0 0->0] [0 0 0 0->0]
s 1.052383501 _0_ MAC  --- 7 DSR 90 [0 ffffffff 0 800] ------- [0:255 9:255 32 0] 1 [1 2] [0 2 0 0->0] [0 0 0 0->0]
r 1.053104035 _1_ MAC  --- 7 DSR 32 [0 ffffffff 0 800] ------- [0:255 9:255 32 0] 1 [1 2] [0 2 0 0->0] [0 0 0 0->0]
r 1.053104294 _2_ MAC  --- 7 DSR 32 [0 ffffffff 0 800] ------- [0:255 9:255 32 0] 1 [1 2] [0 2 0 0->0] [0 0 0 0->0]
r 1.053129035 _1_ RTR  --- 7 DSR 32 [0 ffffffff 0 800] ------- [0:255 9:255 32 0] 1 [1 2] [0 2 0 0->0] [0 0 0 0->0]
r 1.053129294 _2_ RTR  --- 7 DSR 32 [0 ffffffff 0 800] ------- [0:255 9:255 32 0] 1 [1 2] [0 2 0 0->0] [0 0 0 0->0]
f 1.054076629 _1_ RTR  --- 7 DSR 48 [0 ffffffff 0 800] ------- [0:255 9:255 32 0] 2 [1 2] [0 2 0 0->0] [0 0 0 0->0]
s 1.054171629 _1_ MAC  --- 7 DSR 106 [0 ffffffff 1 800] ------- [0:255 9:255 32 0] 2 [1 2] [0 2 0 0->0] [0 0 0 0->0]
s 1.054837880 _14_ RTR  --- 9 DSR 32 [0 0 0 0] ------- [14:255 10:255 32 0] 1 [1 2] [0 2 0 0->0] [0 0 0 0->0]
r 1.055020075 _2_ MAC  --- 7 DSR 48 [0 ffffffff 1 800] ------- [0:255 9:255 32 0] 2 [1 2] [0 2 0 0->0] [0 0 0 0->0]
r 1.055020163 _0_ MAC  --- 7 DSR 48 [0 ffffffff 1 800] ------- [0:255 9:255 32 0] 2 [1 2] [0 2 0 0->0] [0 0 0 0->0]
r 1.055020251 _3_ MAC  --- 7 DSR 48 [0 ffffffff 1 800] ------- [0:255 9:255 32 0] 2 [1 2] [0 2 0 0->0] [0 0 0 0->0]
r 1.055020258 _4_ MAC  --- 7 DSR 48 [0 ffffffff 1 800] ------- [0:255 9:255 32 0] 2 [1 2] [0 2 0 0->0] [0 0 0 0->0]
r 1.055020346 _16_ MAC  --- 7 DSR 48 [0 ffffffff 1 800] ------- [0:255 9:255 32 0] 2 [1 2] [0 2 0 0->0] [0 0 0 0->0]
r 1.055020456 _19_ MAC  --- 7 DSR 48 [0 ffffffff 1 800] ------- [0:255 9:255 32 0] 2 [1 2] [0 2 0 0->0] [0 0 0 0->0]
r 1.055045075 _2_ RTR  --- 7 DSR 48 [0 ffffffff 1 800] ------- [0:255 9:255 32 0] 2 [1 2] [0 2 0 0->0] [0 0 0 0->0]
r 1.055045163 _0_ RTR  --- 7 DSR 48 [0 ffffffff 1 800] ------- [0:255 9:255 32 0] 2 [1 2] [0 2 0 0->0] [0 0 0 0->0]
r 1.055045251 _3_ RTR  --- 7 DSR 48 [0 ffffffff 1 800] ------- [0:255 9:255 32 0] 2 [1 2] [0 2 0 0->0] [0 0 0 0->0]
r 1.055045258 _4_ RTR  --- 7 DSR 48 [0 ffffffff 1 800] ------- [0:255 9:255 32 0] 2 [1 2] [0 2 0 0->0] [0 0 0 0->0]
r 1.055045346 _16_ RTR  --- 7 DSR 48 [0 ffffffff 1 800] ------- [0:255 9:255 32 0] 2 [1 2] [0 2 0 0->0] [0 0 0 0->0]
r 1.055045456 _19_ RTR  --- 7 DSR 48 [0 ffffffff 1 800] ------- [0:255 9:255 32 0] 2 [1 2] [0 2 0 0->0] [0 0 0 0->0]
s 1.055554722 _14_ MAC  --- 9 DSR 90 [0 ffffffff e 800] ------- [14:255 10:255 32 0] 1 [1 2] [0 2 0 0->0] [0 0 0 0->0]
r 1.056275043 _18_ MAC  --- 9 DSR 32 [0 ffffffff e 800] ------- [14:255 10:255 32 0] 1 [1 2] [0 2 0 0->0] [0 0 0 0->0]
r 1.056275095 _19_ MAC  --- 9 DSR 32 [0 ffffffff e 800] ------- [14:255 10:255 32 0] 1 [1 2] [0 2 0 0->0] [0 0 0 0->0]
r 1.056275131 _15_ MAC  --- 9 DSR 32 [0 ffffffff e 800] ------- [14:255 10:255 32 0] 1 [1 2] [0 2 0 0->0] [0 0 0 0->0]
r 1.056275193 _16_ MAC  --- 9 DSR 32 [0 ffffffff e 800] ------- [14:255 10:255 32 0] 1 [1 2] [0 2 0 0->0] [0 0 0 0->0]
r 1.056275294 _5_ MAC  --- 9 DSR 32 [0 ffffffff e 800] ------- [14:255 10:255 32 0] 1 [1 2] [0 2 0 0->0] [0 0 0 0->0]
r 1.056275304 _13_ MAC  --- 9 DSR 32 [0 ffffffff e 800] ------- [14:255 10:255 32 0] 1 [1 2] [0 2 0 0->0] [0 0 0 0->0]
r 1.056275391 _17_ MAC  --- 9 DSR 32 [0 ffffffff e 800] ------- [14:255 10:255 32 0] 1 [1 2] [0 2 0 0->0] [0 0 0 0->0]
r 1.056275529 _4_ MAC  --- 9 DSR 32 [0 ffffffff e 800] ------- [14:255 10:255 32 0] 1 [1 2] [0 2 0 0->0] [0 0 0 0->0]
r 1.056300043 _18_ RTR  --- 9 DSR 32 [0 ffffffff e 800] ------- [14:255 10:255 32 0] 1 [1 2] [0 2 0 0->0] [0 0 0 0->0]
r 1.056300095 _19_ RTR  --- 9 DSR 32 [0 ffffffff e 800] ------- [14:255 10:255 32 0] 1 [1 2] [0 2 0 0->0] [0 0 0 0->0]
r 1.056300131 _15_ RTR  --- 9 DSR 32 [0 ffffffff e 800] ------- [14:255 10:255 32 0] 1 [1 2] [0 2 0 0->0] [0 0 0 0->0]
r 1.056300193 _16_ RTR  --- 9 DSR 32 [0 ffffffff e 800] ------- [14:255 10:255 32 0] 1 [1 2] [0 2 0 0->0] [0 0 0 0->0]
r 1.056300294 _5_ RTR  --- 9 DSR 32 [0 ffffffff e 800] ------- [14:255 10:255 32 0] 1 [1 2] [0 2 0 0->0] [0 0 0 0->0]
r 1.056300304 _13_ RTR  --- 9 DSR 32 [0 ffffffff e 800] ------- [14:255 10:255 32 0] 1 [1 2] [0 2 0 0->0] [0 0 0 0->0]
r 1.056300391 _17_ RTR  --- 9 DSR 32 [0 ffffffff e 800] ------- [14:255 10:255 32 0] 1 [1 2] [0 2 0 0->0] [0 0 0 0->0]
r 1.056300529 _4_ RTR  --- 9 DSR 32 [0 ffffffff e 800] ------- [14:255 10:255 32 0] 1 [1 2] [0 2 0 0->0] [0 0 0 0->0]
f 1.056540869 _19_ RTR  --- 7 DSR 68 [0 ffffffff 1 800] ------- [0:255 9:255 32 0] 3 [1 2] [0 2 0 0->0] [0 0 0 0->0]
s 1.057135869 _19_ MAC  --- 7 DSR 126 [0 ffffffff 13 800] ------- [0:255 9:255 32 0] 3 [1 2] [0 2 0 0->0] [0 0 0 0->0]
f 1.057187539 _16_ RTR  --- 7 DSR 68 [0 ffffffff 1 800] ------- [0:255 9:255 32 0] 3 [1 2] [0 2 0 0->0] [0 0 0 0->0]
f 1.057193010 _4_ RTR  --- 9 DSR 48 [0 ffffffff e 800] ------- [14:255 10:255 32 0] 2 [1 2] [0 2 0 0->0] [0 0 0 0->0]
r 1.058144243 _14_ MAC  --- 7 DSR 68 [0 ffffffff 13 800] ------- [0:255 9:255 32 0] 3 [1 2] [0 2 0 0->0] [0 0 0 0->0]
r 1.058144303 _4_ MAC  --- 7 DSR 68 [0 ffffffff 13 800] ------- [0:255 9:255 32 0] 3 [1 2] [0 2 0 0->0] [0 0 0 0->0]
r 1.058144337 _16_ MAC  --- 7 DSR 68 [0 ffffffff 13 800] ------- [0:255 9:255 32 0] 3 [1 2] [0 2 0 0->0] [0 0 0 0->0]
r 1.058144344 _5_ MAC  --- 7 DSR 68 [0 ffffffff 13 800] ------- [0:255 9:255 32 0] 3 [1 2] [0 2 0 0->0] [0 0 0 0->0]
r 1.058144459 _15_ MAC  --- 7 DSR 68 [0 ffffffff 13 800] ------- [0:255 9:255 32 0] 3 [1 2] [0 2 0 0->0] [0 0 0 0->0]
r 1.058144534 _6_ MAC  --- 7 DSR 68 [0 ffffffff 13 800] ------- [0:255 9:255 32 0] 3 [1 2] [0 2 0 0->0] [0 0 0 0->0]
r 1.058144564 _18_ MAC  --- 7 DSR 68 [0 ffffffff 13 800] ------- [0:255 9:255 32 0] 3 [1 2] [0 2 0 0->0] [0 0 0 0->0]
r 1.058144676 _17_ MAC  --- 7 DSR 68 [0 ffffffff 13 800] ------- [0:255 9:255 32 0] 3 [1 2] [0 2 0 0->0] [0 0 0 0->0]
r 1.058144693 _13_ MAC  --- 7 DSR 68 [0 ffffffff 13 800] ------- [0:255 9:255 32 0] 3 [1 2] [0 2 0 0->0] [0 0 0 0->0]
r 1.058144697 _1_ MAC  --- 7 DSR 68 [0 ffffffff 13 800] ------- [0:255 9:255 32 0] 3 [1 2] [0 2 0 0->0] [0 0 0 0->0]
r 1.058169243 _14_ RTR  --- 7 DSR 68 [0 ffffffff 13 800] ------- [0:255 9:255 32 0] 3 [1 2] [0 2 0 0->0] [0 0 0 0->0]
r 1.058169303 _4_ RTR  --- 7 DSR 68 [0 ffffffff 13 800] ------- [0:255 9:255 32 0] 3 [1 2] [0 2 0 0->0] [0 0 0 0->0]
r 1.058169337 _16_ RTR  --- 7 DSR 68 [0 ffffffff 13 800] ------- [0:255 9:255 32 0] 3 [1 2] [0 2 0 0->0] [0 0 0 0->0]
r 1.058169344 _5_ RTR  --- 7 DSR 68 [0 ffffffff 13 800] ------- [0:255 9:255 32 0] 3 [1 2] [0 2 0 0->0] [0 0 0 0->0]
r 1.058169459 _15_ RTR  --- 7 DSR 68 [0 ffffffff 13 800] ------- [0:255 9:255 32 0] 3 [1 2] [0 2 0 0->0] [0 0 0 0->0]
r 1.058169534 _6_ RTR  --- 7 DSR 68 [0 ffffffff 13 800] ------- [0:255 9:255 32 0] 3 [1 2] [0 2 0 0->0] [0 0 0 0->0]
r 1.058169564 _18_ RTR  --- 7 DSR 68 [0 ffffffff 13 800] ------- [0:255 9:255 32 0] 3 [1 2] [0 2 0 0->0] [0 0 0 0->0]
r 1.058169676 _17_ RTR  --- 7 DSR 68 [0 ffffffff 13 800] ------- [0:255 9:255 32 0] 3 [1 2] [0 2 0 0->0] [0 0 0 0->0]
r 1.058169693 _13_ RTR  --- 7 DSR 68 [0 ffffffff 13 800] ------- [0:255 9:255 32 0] 3 [1 2] [0 2 0 0->0] [0 0 0 0->0]
r 1.058169697 _1_ RTR  --- 7 DSR 68 [0 ffffffff 13 800] ------- [0:255 9:255 32 0] 3 [1 2] [0 2 0 0->0] [0 0 0 0->0]
s 1.058194337 _16_ MAC  --- 7 DSR 126 [0 ffffffff 10 800] ------- [0:255 9:255 32 0] 3 [1 2] [0 2 0 0->0] [0 0 0 0->0]
f 1.058245975 _5_ RTR  --- 7 DSR 92 [0 ffffffff 13 800] ------- [0:255 9:255 32 0] 4 [1 2] [0 2 0 0->0] [0 0 0 0->0]
f 1.058536961 _2_ RTR  --- 7 DSR 48 [0 ffffffff 0 800] ------- [0:255 9:255 32 0] 2 [1 2] [0 2 0 0->0] [0 0 0 0->0]
f 1.058582365 _17_ RTR  --- 9 DSR 48 [0 ffffffff e 800] ------- [14:255 10:255 32 0] 2 [1 2] [0 2 0 0->0] [0 0 0 0->0]
f 1.058605202 _3_ RTR  --- 7 DSR 68 [0 ffffffff 1 800] ------- [0:255 9:255 32 0] 3 [1 2] [0 2 0 0->0] [0 0 0 0->0]
f 1.059142134 _16_ RTR  --- 9 DSR 48 [0 ffffffff e 800] ------- [14:255 10:255 32 0] 2 [1 2] [0 2 0 0->0] [0 0 0 0->0]
r 1.059202584 _15_ MAC  --- 7 DSR 68 [0 ffffffff 10 800] ------- [0:255 9:255 32 0] 3 [1 2] [0 2 0 0->0] [0 0 0 0->0]
r 1.059202698 _17_ MAC  --- 7 DSR 68 [0 ffffffff 10 800] ------- [0:255 9:255 32 0] 3 [1 2] [0 2 0 0->0] [0 0 0 0->0]
r 1.059202804 _19_ MAC  --- 7 DSR 68 [0 ffffffff 10 800] ------- [0:255 9:255 32 0] 3 [1 2] [0 2 0 0->0] [0 0 0 0->0]
r 1.059202808 _14_ MAC  --- 7 DSR 68 [0 ffffffff 10 800] ------- [0:255 9:255 32 0] 3 [1 2] [0 2 0 0->0] [0 0 0 0->0]
r 1.059202994 _18_ MAC  --- 7 DSR 68 [0 ffffffff 10 800] ------- [0:255 9:255 32 0] 3 [1 2] [0 2 0 0->0] [0 0 0 0->0]
r 1.059203054 _1_ MAC  --- 7 DSR 68 [0 ffffffff 10 800] ------- [0:255 9:255 32 0] 3 [1 2] [0 2 0 0->0] [0 0 0 0->0]
r 1.059203067 _4_ MAC  --- 7 DSR 68 [0 ffffffff 10 800] ------- [0:255 9:255 32 0] 3 [1 2] [0 2 0 0->0] [0 0 0 0->0]
r 1.059227584 _15_ RTR  --- 7 DSR 68 [0 ffffffff 10 800] ------- [0:255 9:255 32 0] 3 [1 2] [0 2 0 0->0] [0 0 0 0->0]
r 1.059227698 _17_ RTR  --- 7 DSR 68 [0 ffffffff 10 800] ------- [0:255 9:255 32 0] 3 [1 2] [0 2 0 0->0] [0 0 0 0->0]
r 1.059227804 _19_ RTR  --- 7 DSR 68 [0 ffffffff 10 800] ------- [0:255 9:255 32 0] 3 [1 2] [0 2 0 0->0] [0 0 0 0->0]
r 1.059227808 _14_ RTR  --- 7 DSR 68 [0 ffffffff 10 800] ------- [0:255 9:255 32 0] 3 [1 2] [0 2 0 0->0] [0 0 0 0->0]
r 1.059227994 _18_ RTR  --- 7 DSR 68 [0 ffffffff 10 800] ------- [0:255 9:255 32 0] 3 [1 2] [0 2 0 0->0] [0 0 0 0->0]
r 1.059228054 _1_ RTR  --- 7 DSR 68 [0 ffffffff 10 800] ------- [0:255 9:255 32 0] 3 [1 2] [0 2 0 0->0] [0 0 0 0->0]
r 1.059228067 _4_ RTR  --- 7 DSR 68 [0 ffffffff 10 800] ------- [0:255 9:255 32 0] 3 [1 2] [0 2 0 0->0] [0 0 0 0->0]
s 1.059252337 _16_ MAC  --- 9 DSR 106 [0 ffffffff 10 800] ------- [14:255 10:255 32 0] 2 [1 2] [0 2 0 0->0] [0 0 0 0->0]
r 1.060100584 _15_ MAC  --- 9 DSR 48 [0 ffffffff 10 800] ------- [14:255 10:255 32 0] 2 [1 2] [0 2 0 0->0] [0 0 0 0->0]
r 1.060100698 _17_ MAC  --- 9 DSR 48 [0 ffffffff 10 800] ------- [14:255 10:255 32 0] 2 [1 2] [0 2 0 0->0] [0 0 0 0->0]
r 1.060100804 _19_ MAC  --- 9 DSR 48 [0 ffffffff 10 800] ------- [14:255 10:255 32 0] 2 [1 2] [0 2 0 0->0] [0 0 0 0->0]
r 1.060100808 _14_ MAC  --- 9 DSR 48 [0 ffffffff 10 800] ------- [14:255 10:255 32 0] 2 [1 2] [0 2 0 0->0] [0 0 0 0->0]
r 1.060100994 _18_ MAC  --- 9 DSR 48 [0 ffffffff 10 800] ------- [14:255 10:255 32 0] 2 [1 2] [0 2 0 0->0] [0 0 0 0->0]
r 1.060101054 _1_ MAC  --- 9 DSR 48 [0 ffffffff 10 800] ------- [14:255 10:255 32 0] 2 [1 2] [0 2 0 0->0] [0 0 0 0->0]
r 1.060101067 _4_ MAC  --- 9 DSR 48 [0 ffffffff 10 800] ------- [14:255 10:255 32 0] 2 [1 2] [0 2 0 0->0] [0 0 0 0->0]
r 1.060125584 _15_ RTR  --- 9 DSR 48 [0 ffffffff 10 800] ------- [14:255 10:255 32 0] 2 [1 2] [0 2 0 0->0] [0 0 0 0->0]
r 1.060125698 _17_ RTR  --- 9 DSR 48 [0 ffffffff 10 800] ------- [14:255 10:255 32 0] 2 [1 2] [0 2 0 0->0] [0 0 0 0->0]
r 1.060125804 _19_ RTR  --- 9 DSR 48 [0 ffffffff 10 800] ------- [14:255 10:255 32 0] 2 [1 2] [0 2 0 0->0] [0 0 0 0->0]
r 1.060125808 _14_ RTR  --- 9 DSR 48 [0 ffffffff 10 800] ------- [14:255 10:255 32 0] 2 [1 2] [0 2 0 0->0] [0 0 0 0->0]
r 1.060125994 _18_ RTR  --- 9 DSR 48 [0 ffffffff 10 800] ------- [14:255 10:255 32 0] 2 [1 2] [0 2 0 0->0] [0 0 0 0->0]
r 1.060126054 _1_ RTR  --- 9 DSR 48 [0 ffffffff 10 800] ------- [14:255 10:255 32 0] 2 [1 2] [0 2 0 0->0] [0 0 0 0->0]
r 1.060126067 _4_ RTR  --- 9 DSR 48 [0 ffffffff 10 800] ------- [14:255 10:255 32 0] 2 [1 2] [0 2 0 0->0] [0 0 0 0->0]
s 1.060210698 _17_ MAC  --- 9 DSR 106 [0 ffffffff 11 800] ------- [14:255 10:255 32 0] 2 [1 2] [0 2 0 0->0] [0 0 0 0->0]
f 1.060590854 _17_ RTR  --- 7 DSR 92 [0 ffffffff 13 800] ------- [0:255 9:255 32 0] 4 [1 2] [0 2 0 0->0] [0 0 0 0->0]
r 1.061058959 _15_ MAC  --- 9 DSR 48 [0 ffffffff 11 800] ------- [14:255 10:255 32 0] 2 [1 2] [0 2 0 0->0] [0 0 0 0->0]
r 1.061059059 _16_ MAC  --- 9 DSR 48 [0 ffffffff 11 800] ------- [14:255 10:255 32 0] 2 [1 2] [0 2 0 0->0] [0 0 0 0->0]
r 1.061059367 _14_ MAC  --- 9 DSR 48 [0 ffffffff 11 800] ------- [14:255 10:255 32 0] 2 [1 2] [0 2 0 0->0] [0 0 0 0->0]
r 1.061059385 _18_ MAC  --- 9 DSR 48 [0 ffffffff 11 800] ------- [14:255 10:255 32 0] 2 [1 2] [0 2 0 0->0] [0 0 0 0->0]
r 1.061059504 _19_ MAC  --- 9 DSR 48 [0 ffffffff 11 800] ------- [14:255 10:255 32 0] 2 [1 2] [0 2 0 0->0] [0 0 0 0->0]
r 1.061083959 _15_ RTR  --- 9 DSR 48 [0 ffffffff 11 800] ------- [14:255 10:255 32 0] 2 [1 2] [0 2 0 0->0] [0 0 0 0->0]
r 1.061084059 _16_ RTR  --- 9 DSR 48 [0 ffffffff 11 800] ------- [14:255 10:255 32 0] 2 [1 2] [0 2 0 0->0] [0 0 0 0->0]
r 1.061084367 _14_ RTR  --- 9 DSR 48 [0 ffffffff 11 800] ------- [14:255 10:255 32 0] 2 [1 2] [0 2 0 0->0] [0 0 0 0->0]
r 1.061084385 _18_ RTR  --- 9 DSR 48 [0 ffffffff 11 800] ------- [14:255 10:255 32 0] 2 [1 2] [0 2 0 0->0] [0 0 0 0->0]
r 1.061084504 _19_ RTR  --- 9 DSR 48 [0 ffffffff 11 800] ------- [14:255 10:255 32 0] 2 [1 2] [0 2 0 0->0] [0 0 0 0->0]
f 1.061157288 _5_ RTR  --- 9 DSR 48 [0 ffffffff e 800] ------- [14:255 10:255 32 0] 2 [1 2] [0 2 0 0->0] [0 0 0 0->0]
s 1.061208698 _17_ MAC  --- 7 DSR 150 [0 ffffffff 11 800] ------- [0:255 9:255 32 0] 4 [1 2] [0 2 0 0->0] [0 0 0 0->0]
f 1.062186046 _13_ RTR  --- 7 DSR 92 [0 ffffffff 13 800] ------- [0:255 9:255 32 0] 4 [1 2] [0 2 0 0->0] [0 0 0 0->0]
f 1.062379094 _4_ RTR  --- 7 DSR 68 [0 ffffffff 1 800] ------- [0:255 9:255 32 0] 3 [1 2] [0 2 0 0->0] [0 0 0 0->0]
r 1.062408959 _15_ MAC  --- 7 DSR 92 [0 ffffffff 11 800] ------- [0:255 9:255 32 0] 4 [1 2] [0 2 0 0->0] [0 0 0 0->0]
r 1.062409059 _16_ MAC  --- 7 DSR 92 [0 ffffffff 11 800] ------- [0:255 9:255 32 0] 4 [1 2] [0 2 0 0->0] [0 0 0 0->0]
r 1.062409367 _14_ MAC  --- 7 DSR 92 [0 ffffffff 11 800] ------- [0:255 9:255 32 0] 4 [1 2] [0 2 0 0->0] [0 0 0 0->0]
r 1.062409385 _18_ MAC  --- 7 DSR 92 [0 ffffffff 11 800] ------- [0:255 9:255 32 0] 4 [1 2] [0 2 0 0->0] [0 0 0 0->0]
r 1.062409504 _19_ MAC  --- 7 DSR 92 [0 ffffffff 11 800] ------- [0:255 9:255 32 0] 4 [1 2] [0 2 0 0->0] [0 0 0 0->0]
r 1.062433959 _15_ RTR  --- 7 DSR 92 [0 ffffffff 11 800] ------- [0:255 9:255 32 0] 4 [1 2] [0 2 0 0->0] [0 0 0 0->0]
r 1.062434059 _16_ RTR  --- 7 DSR 92 [0 ffffffff 11 800] ------- [0:255 9:255 32 0] 4 [1 2] [0 2 0 0->0] [0 0 0 0->0]
r 1.062434367 _14_ RTR  --- 7 DSR 92 [0 ffffffff 11 800] ------- [0:255 9:255 32 0] 4 [1 2] [0 2 0 0->0] [0 0 0 0->0]
r 1.062434385 _18_ RTR  --- 7 DSR 92 [0 ffffffff 11 800] ------- [0:255 9:255 32 0] 4 [1 2] [0 2 0 0->0] [0 0 0 0->0]
r 1.062434504 _19_ RTR  --- 7 DSR 92 [0 ffffffff 11 800] ------- [0:255 9:255 32 0] 4 [1 2] [0 2 0 0->0] [0 0 0 0->0]
s 1.062943905 _5_ MAC  --- 7 DSR 150 [0 ffffffff 5 800] ------- [0:255 9:255 32 0] 4 [1 2] [0 2 0 0->0] [0 0 0 0->0]
f 1.063175117 _19_ RTR  --- 9 DSR 48 [0 ffffffff e 800] ------- [14:255 10:255 32 0] 2 [1 2] [0 2 0 0->0] [0 0 0 0->0]
f 1.063696268 _15_ RTR  --- 7 DSR 92 [0 ffffffff 13 800] ------- [0:255 9:255 32 0] 4 [1 2] [0 2 0 0->0] [0 0 0 0->0]
f 1.063730805 _15_ RTR  --- 9 DSR 48 [0 ffffffff e 800] ------- [14:255 10:255 32 0] 2 [1 2] [0 2 0 0->0] [0 0 0 0->0]
r 1.064144380 _19_ MAC  --- 7 DSR 92 [0 ffffffff 5 800] ------- [0:255 9:255 32 0] 4 [1 2] [0 2 0 0->0] [0 0 0 0->0]
r 1.064144477 _14_ MAC  --- 7 DSR 92 [0 ffffffff 5 800] ------- [0:255 9:255 32 0] 4 [1 2] [0 2 0 0->0] [0 0 0 0->0]
r 1.064144480 _8_ MAC  --- 7 DSR 92 [0 ffffffff 5 800] ------- [0:255 9:255 32 0] 4 [1 2] [0 2 0 0->0] [0 0 0 0->0]
r 1.064144499 _13_ MAC  --- 7 DSR 92 [0 ffffffff 5 800] ------- [0:255 9:255 32 0] 4 [1 2] [0 2 0 0->0] [0 0 0 0->0]
r 1.064144574 _12_ MAC  --- 7 DSR 92 [0 ffffffff 5 800] ------- [0:255 9:255 32 0] 4 [1 2] [0 2 0 0->0] [0 0 0 0->0]
r 1.064144605 _4_ MAC  --- 7 DSR 92 [0 ffffffff 5 800] ------- [0:255 9:255 32 0] 4 [1 2] [0 2 0 0->0] [0 0 0 0->0]
r 1.064144635 _6_ MAC  --- 7 DSR 92 [0 ffffffff 5 800] ------- [0:255 9:255 32 0] 4 [1 2] [0 2 0 0->0] [0 0 0 0->0]
r 1.064144715 _18_ MAC  --- 7 DSR 92 [0 ffffffff 5 800] ------- [0:255 9:255 32 0] 4 [1 2] [0 2 0 0->0] [0 0 0 0->0]
r 1.064169380 _19_ RTR  --- 7 DSR 92 [0 ffffffff 5 800] ------- [0:255 9:255 32 0] 4 [1 2] [0 2 0 0->0] [0 0 0 0->0]
r 1.064169477 _14_ RTR  --- 7 DSR 92 [0 ffffffff 5 800] ------- [0:255 9:255 32 0] 4 [1 2] [0 2 0 0->0] [0 0 0 0->0]
r 1.064169480 _8_ RTR  --- 7 DSR 92 [0 ffffffff 5 800] ------- [0:255 9:255 32 0] 4 [1 2] [0 2 0 0->0] [0 0 0 0->0]
r 1.064169499 _13_ RTR  --- 7 DSR 92 [0 ffffffff 5 800] ------- [0:255 9:255 32 0] 4 [1 2] [0 2 0 0->0] [0 0 0 0->0]
r 1.064169574 _12_ RTR  --- 7 DSR 92 [0 ffffffff 5 800] ------- [0:255 9:255 32 0] 4 [1 2] [0 2 0 0->0] [0 0 0 0->0]
r 1.064169605 _4_ RTR  --- 7 DSR 92 [0 ffffffff 5 800] ------- [0:255 9:255 32 0] 4 [1 2] [0 2 0 0->0] [0 0 0 0->0]
r 1.064169635 _6_ RTR  --- 7 DSR 92 [0 ffffffff 5 800] ------- [0:255 9:255 32 0] 4 [1 2] [0 2 0 0->0] [0 0 0 0->0]
r 1.064169715 _18_ RTR  --- 7 DSR 92 [0 ffffffff 5 800] ------- [0:255 9:255 32 0] 4 [1 2] [0 2 0 0->0] [0 0 0 0->0]
s 1.064233905 _5_ MAC  --- 9 DSR 106 [0 ffffffff 5 800] ------- [14:255 10:255 32 0] 2 [1 2] [0 2 0 0->0] [0 0 0 0->0]
f 1.064418484 _6_ RTR  --- 7 DSR 92 [0 ffffffff 13 800] ------- [0:255 9:255 32 0] 4 [1 2] [0 2 0 0->0] [0 0 0 0->0]
f 1.064943527 _18_ RTR  --- 9 DSR 48 [0 ffffffff e 800] ------- [14:255 10:255 32 0] 2 [1 2] [0 2 0 0->0] [0 0 0 0->0]
r 1.065082380 _19_ MAC  --- 9 DSR 48 [0 ffffffff 5 800] ------- [14:255 10:255 32 0] 2 [1 2] [0 2 0 0->0] [0 0 0 0->0]
r 1.065082477 _14_ MAC  --- 9 DSR 48 [0 ffffffff 5 800] ------- [14:255 10:255 32 0] 2 [1 2] [0 2 0 0->0] [0 0 0 0->0]
r 1.065082480 _8_ MAC  --- 9 DSR 48 [0 ffffffff 5 800] ------- [14:255 10:255 32 0] 2 [1 2] [0 2 0 0->0] [0 0 0 0->0]
r 1.065082499 _13_ MAC  --- 9 DSR 48 [0 ffffffff 5 800] ------- [14:255 10:255 32 0] 2 [1 2] [0 2 0 0->0] [0 0 0 0->0]
r 1.065082574 _12_ MAC  --- 9 DSR 48 [0 ffffffff 5 800] ------- [14:255 10:255 32 0] 2 [1 2] [0 2 0 0->0] [0 0 0 0->0]
r 1.065082605 _4_ MAC  --- 9 DSR 48 [0 ffffffff 5 800] ------- [14:255 10:255 32 0] 2 [1 2] [0 2 0 0->0] [0 0 0 0->0]
r 1.065082635 _6_ MAC  --- 9 DSR 48 [0 ffffffff 5 800] ------- [14:255 10:255 32 0] 2 [1 2] [0 2 0 0->0] [0 0 0 0->0]
r 1.065082715 _18_ MAC  --- 9 DSR 48 [0 ffffffff 5 800] ------- [14:255 10:255 32 0] 2 [1 2] [0 2 0 0->0] [0 0 0 0->0]
r 1.065107380 _19_ RTR  --- 9 DSR 48 [0 ffffffff 5 800] ------- [14:255 10:255 32 0] 2 [1 2] [0 2 0 0->0] [0 0 0 0->0]
r 1.065107477 _14_ RTR  --- 9 DSR 48 [0 ffffffff 5 800] ------- [14:255 10:255 32 0] 2 [1 2] [0 2 0 0->0] [0 0 0 0->0]
r 1.065107480 _8_ RTR  --- 9 DSR 48 [0 ffffffff 5 800] ------- [14:255 10:255 32 0] 2 [1 2] [0 2 0 0->0] [0 0 0 0->0]
r 1.065107499 _13_ RTR  --- 9 DSR 48 [0 ffffffff 5 800] ------- [14:255 10:255 32 0] 2 [1 2] [0 2 0 0->0] [0 0 0 0->0]
r 1.065107574 _12_ RTR  --- 9 DSR 48 [0 ffffffff 5 800] ------- [14:255 10:255 32 0] 2 [1 2] [0 2 0 0->0] [0 0 0 0->0]
r 1.065107605 _4_ RTR  --- 9 DSR 48 [0 ffffffff 5 800] ------- [14:255 10:255 32 0] 2 [1 2] [0 2 0 0->0] [0 0 0 0->0]
r 1.065107635 _6_ RTR  --- 9 DSR 48 [0 ffffffff 5 800] ------- [14:255 10:255 32 0] 2 [1 2] [0 2 0 0->0] [0 0 0 0->0]
r 1.065107715 _18_ RTR  --- 9 DSR 48 [0 ffffffff 5 800] ------- [14:255 10:255 32 0] 2 [1 2] [0 2 0 0->0] [0 0 0 0->0]
f 1.065221814 _8_ RTR  --- 9 DSR 68 [0 ffffffff 5 800] ------- [14:255 10:255 32 0] 3 [1 2] [0 2 0 0->0] [0 0 0 0->0]
s 1.065252499 _13_ MAC  --- 7 DSR 150 [0 ffffffff d 800] ------- [0:255 9:255 32 0] 4 [1 2] [0 2 0 0->0] [0 0 0 0->0]
f 1.065448391 _13_ RTR  --- 9 DSR 48 [0 ffffffff e 800] ------- [14:255 10:255 32 0] 2 [1 2] [0 2 0 0->0] [0 0 0 0->0]
s 1.065897424 _2_ MAC  --- 7 DSR 106 [0 ffffffff 2 800] ------- [0:255 9:255 32 0] 2 [1 2] [0 2 0 0->0] [0 0 0 0->0]
D 1.065898585 _19_ MAC  COL 7 DSR 150 [0 ffffffff d 800] ------- [0:255 9:255 32 0] 4 [1 2] [0 2 0 0->0] [0 0 0 0->0]
r 1.066453036 _18_ MAC  --- 7 DSR 92 [0 ffffffff d 800] ------- [0:255 9:255 32 0] 4 [1 2] [0 2 0 0->0] [0 0 0 0->0]
r 1.066453081 _14_ MAC  --- 7 DSR 92 [0 ffffffff d 800] ------- [0:255 9:255 32 0] 4 [1 2] [0 2 0 0->0] [0 0 0 0->0]
r 1.066453092 _5_ MAC  --- 7 DSR 92 [0 ffffffff d 800] ------- [0:255 9:255 32 0] 4 [1 2] [0 2 0 0->0] [0 0 0 0->0]
r 1.066453097 _12_ MAC  --- 7 DSR 92 [0 ffffffff d 800] ------- [0:255 9:255 32 0] 4 [1 2] [0 2 0 0->0] [0 0 0 0->0]
r 1.066478036 _18_ RTR  --- 7 DSR 92 [0 ffffffff d 800] ------- [0:255 9:255 32 0] 4 [1 2] [0 2 0 0->0] [0 0 0 0->0]
r 1.066478081 _14_ RTR  --- 7 DSR 92 [0 ffffffff d 800] ------- [0:255 9:255 32 0] 4 [1 2] [0 2 0 0->0] [0 0 0 0->0]
r 1.066478092 _5_ RTR  --- 7 DSR 92 [0 ffffffff d 800] ------- [0:255 9:255 32 0] 4 [1 2] [0 2 0 0->0] [0 0 0 0->0]
r 1.066478097 _12_ RTR  --- 7 DSR 92 [0 ffffffff d 800] ------- [0:255 9:255 32 0] 4 [1 2] [0 2 0 0->0] [0 0 0 0->0]
D 1.066745870 _1_ MAC  COL 7 DSR 106 [0 ffffffff 2 800] ------- [0:255 9:255 32 0] 2 [1 2] [0 2 0 0->0] [0 0 0 0->0]
D 1.066745906 _3_ MAC  COL 7 DSR 106 [0 ffffffff 2 800] ------- [0:255 9:255 32 0] 2 [1 2] [0 2 0 0->0] [0 0 0 0->0]
r 1.066746216 _0_ MAC  --- 7 DSR 48 [0 ffffffff 2 800] ------- [0:255 9:255 32 0] 2 [1 2] [0 2 0 0->0] [0 0 0 0->0]
D 1.066746244 _4_ MAC  COL 7 DSR 106 [0 ffffffff 2 800] ------- [0:255 9:255 32 0] 2 [1 2] [0 2 0 0->0] [0 0 0 0->0]
f 1.066760279 _14_ RTR  --- 7 DSR 92 [0 ffffffff 13 800] ------- [0:255 9:255 32 0] 4 [1 2] [0 2 0 0->0] [0 0 0 0->0]
r 1.066771216 _0_ RTR  --- 7 DSR 48 [0 ffffffff 2 800] ------- [0:255 9:255 32 0] 2 [1 2] [0 2 0 0->0] [0 0 0 0->0]
s 1.066822499 _13_ MAC  --- 9 DSR 106 [0 ffffffff d 800] ------- [14:255 10:255 32 0] 2 [1 2] [0 2 0 0->0] [0 0 0 0->0]
f 1.066911116 _8_ RTR  --- 7 DSR 120 [0 ffffffff 5 800] ------- [0:255 9:255 32 0] 5 [1 2] [0 2 0 0->0] [0 0 0 0->0]
f 1.067382644 _18_ RTR  --- 7 DSR 92 [0 ffffffff 13 800] ------- [0:255 9:255 32 0] 4 [1 2] [0 2 0 0->0] [0 0 0 0->0]
r 1.067671036 _18_ MAC  --- 9 DSR 48 [0 ffffffff d 800] ------- [14:255 10:255 32 0] 2 [1 2] [0 2 0 0->0] [0 0 0 0->0]
r 1.067671081 _14_ MAC  --- 9 DSR 48 [0 ffffffff d 800] ------- [14:255 10:255 32 0] 2 [1 2] [0 2 0 0->0] [0 0 0 0->0]
r 1.067671092 _5_ MAC  --- 9 DSR 48 [0 ffffffff d 800] ------- [14:255 10:255 32 0] 2 [1 2] [0 2 0 0->0] [0 0 0 0->0]
r 1.067671097 _12_ MAC  --- 9 DSR 48 [0 ffffffff d 800] ------- [14:255 10:255 32 0] 2 [1 2] [0 2 0 0->0] [0 0 0 0->0]
r 1.067671323 _19_ MAC  --- 9 DSR 48 [0 ffffffff d 800] ------- [14:255 10:255 32 0] 2 [1 2] [0 2 0 0->0] [0 0 0 0->0]
r 1.067696036 _18_ RTR  --- 9 DSR 48 [0 ffffffff d 800] ------- [14:255 10:255 32 0] 2 [1 2] [0 2 0 0->0] [0 0 0 0->0]
r 1.067696081 _14_ RTR  --- 9 DSR 48 [0 ffffffff d 800] ------- [14:255 10:255 32 0] 2 [1 2] [0 2 0 0->0] [0 0 0 0->0]
r 1.067696092 _5_ RTR  --- 9 DSR 48 [0 ffffffff d 800] ------- [14:255 10:255 32 0] 2 [1 2] [0 2 0 0->0] [0 0 0 0->0]
r 1.067696097 _12_ RTR  --- 9 DSR 48 [0 ffffffff d 800] ------- [14:255 10:255 32 0] 2 [1 2] [0 2 0 0->0] [0 0 0 0->0]
r 1.067696323 _19_ RTR  --- 9 DSR 48 [0 ffffffff d 800] ------- [14:255 10:255 32 0] 2 [1 2] [0 2 0 0->0] [0 0 0 0->0]
s 1.067721081 _14_ MAC  --- 7 DSR 150 [0 ffffffff e 800] ------- [0:255 9:255 32 0] 4 [1 2] [0 2 0 0->0] [0 0 0 0->0]
f 1.068406862 _1_ RTR  --- 9 DSR 68 [0 ffffffff 10 800] ------- [14:255 10:255 32 0] 3 [1 2] [0 2 0 0->0] [0 0 0 0->0]
r 1.068921402 _18_ MAC  --- 7 DSR 92 [0 ffffffff e 800] ------- [0:255 9:255 32 0] 4 [1 2] [0 2 0 0->0] [0 0 0 0->0]
r 1.068921454 _19_ MAC  --- 7 DSR 92 [0 ffffffff e 800] ------- [0:255 9:255 32 0] 4 [1 2] [0 2 0 0->0] [0 0 0 0->0]
r 1.068921489 _15_ MAC  --- 7 DSR 92 [0 ffffffff e 800] ------- [0:255 9:255 32 0] 4 [1 2] [0 2 0 0->0] [0 0 0 0->0]
r 1.068921552 _16_ MAC  --- 7 DSR 92 [0 ffffffff e 800] ------- [0:255 9:255 32 0] 4 [1 2] [0 2 0 0->0] [0 0 0 0->0]
r 1.068921653 _5_ MAC  --- 7 DSR 92 [0 ffffffff e 800] ------- [0:255 9:255 32 0] 4 [1 2] [0 2 0 0->0] [0 0 0 0->0]
r 1.068921663 _13_ MAC  --- 7 DSR 92 [0 ffffffff e 800] ------- [0:255 9:255 32 0] 4 [1 2] [0 2 0 0->0] [0 0 0 0->0]
r 1.068921750 _17_ MAC  --- 7 DSR 92 [0 ffffffff e 800] ------- [0:255 9:255 32 0] 4 [1 2] [0 2 0 0->0] [0 0 0 0->0]
r 1.068921887 _4_ MAC  --- 7 DSR 92 [0 ffffffff e 800] ------- [0:255 9:255 32 0] 4 [1 2] [0 2 0 0->0] [0 0 0 0->0]
r 1.068946402 _18_ RTR  --- 7 DSR 92 [0 ffffffff e 800] ------- [0:255 9:255 32 0] 4 [1 2] [0 2 0 0->0] [0 0 0 0->0]
r 1.068946454 _19_ RTR  --- 7 DSR 92 [0 ffffffff e 800] ------- [0:255 9:255 32 0] 4 [1 2] [0 2 0 0->0] [0 0 0 0->0]
r 1.068946489 _15_ RTR  --- 7 DSR 92 [0 ffffffff e 800] ------- [0:255 9:255 32 0] 4 [1 2] [0 2 0 0->0] [0 0 0 0->0]
r 1.068946552 _16_ RTR  --- 7 DSR 92 [0 ffffffff e 800] ------- [0:255 9:255 32 0] 4 [1 2] [0 2 0 0->0] [0 0 0 0->0]
r 1.068946653 _5_ RTR  --- 7 DSR 92 [0 ffffffff e 800] ------- [0:255 9:255 32 0] 4 [1 2] [0 2 0 0->0] [0 0 0 0->0]
r 1.068946663 _13_ RTR  --- 7 DSR 92 [0 ffffffff e 800] ------- [0:255 9:255 32 0] 4 [1 2] [0 2 0 0->0] [0 0 0 0->0]
r 1.068946750 _17_ RTR  --- 7 DSR 92 [0 ffffffff e 800] ------- [0:255 9:255 32 0] 4 [1 2] [0 2 0 0->0] [0 0 0 0->0]
r 1.068946887 _4_ RTR  --- 7 DSR 92 [0 ffffffff e 800] ------- [0:255 9:255 32 0] 4 [1 2] [0 2 0 0->0] [0 0 0 0->0]
s 1.069031887 _4_ MAC  --- 9 DSR 106 [0 ffffffff 4 800] ------- [14:255 10:255 32 0] 2 [1 2] [0 2 0 0->0] [0 0 0 0->0]
r 1.069880201 _6_ MAC  --- 9 DSR 48 [0 ffffffff 4 800] ------- [14:255 10:255 32 0] 2 [1 2] [0 2 0 0->0] [0 0 0 0->0]
r 1.069880321 _19_ MAC  --- 9 DSR 48 [0 ffffffff 4 800] ------- [14:255 10:255 32 0] 2 [1 2] [0 2 0 0->0] [0 0 0 0->0]
r 1.069880392 _3_ MAC  --- 9 DSR 48 [0 ffffffff 4 800] ------- [14:255 10:255 32 0] 2 [1 2] [0 2 0 0->0] [0 0 0 0->0]
r 1.069880517 _1_ MAC  --- 9 DSR 48 [0 ffffffff 4 800] ------- [14:255 10:255 32 0] 2 [1 2] [0 2 0 0->0] [0 0 0 0->0]
r 1.069880588 _5_ MAC  --- 9 DSR 48 [0 ffffffff 4 800] ------- [14:255 10:255 32 0] 2 [1 2] [0 2 0 0->0] [0 0 0 0->0]
r 1.069880618 _16_ MAC  --- 9 DSR 48 [0 ffffffff 4 800] ------- [14:255 10:255 32 0] 2 [1 2] [0 2 0 0->0] [0 0 0 0->0]
r 1.069880694 _14_ MAC  --- 9 DSR 48 [0 ffffffff 4 800] ------- [14:255 10:255 32 0] 2 [1 2] [0 2 0 0->0] [0 0 0 0->0]
r 1.069880708 _2_ MAC  --- 9 DSR 48 [0 ffffffff 4 800] ------- [14:255 10:255 32 0] 2 [1 2] [0 2 0 0->0] [0 0 0 0->0]
r 1.069880711 _7_ MAC  --- 9 DSR 48 [0 ffffffff 4 800] ------- [14:255 10:255 32 0] 2 [1 2] [0 2 0 0->0] [0 0 0 0->0]
r 1.069905201 _6_ RTR  --- 9 DSR 48 [0 ffffffff 4 800] ------- [14:255 10:255 32 0] 2 [1 2] [0 2 0 0->0] [0 0 0 0->0]