Sconfig 0.00000 tap: on snoop: rts? on errs? on
Sconfig 0.00000 salvage: on !bd replies? on
Sconfig 0.00000 grat error: on grat reply: on
Sconfig 0.00000 $reply for props: on ring 0 search: on
Sconfig 0.00000 using MOBICACHE
s 0.500000000 _0_ AGT  --- 0 cbr 1000 [0 0 0 0] ------- [0:0 7:0 32 0] [0] 0 0
r 0.500000000 _0_ RTR  --- 0 cbr 1000 [0 0 0 0] ------- [0:0 7:0 32 0] [0] 0 0
s 0.500000000 _3_ AGT  --- 2 cbr 1000 [0 0 0 0] ------- [3:0 9:0 32 0] [0] 0 0
r 0.500000000 _3_ RTR  --- 2 cbr 1000 [0 0 0 0] ------- [3:0 9:0 32 0] [0] 0 0
s 0.502141520 _0_ RTR  --- 1 DSR 32 [0 0 0 0] ------- [0:255 7:255 32 0] 1 [1 1] [0 1 0 0->0] [0 0 0 0->0]
s 0.502236520 _0_ MAC  --- 1 DSR 90 [0 ffffffff 0 800] ------- [0:255 7:255 32 0] 1 [1 1] [0 1 0 0->0] [0 0 0 0->0]
r 0.502957232 _1_ MAC  --- 1 DSR 32 [0 ffffffff 0 800] ------- [0:255 7:255 32 0] 1 [1 1] [0 1 0 0->0] [0 0 0 0->0]
r 0.502957281 _4_ MAC  --- 1 DSR 32 [0 ffffffff 0 800] ------- [0:255 7:255 32 0] 1 [1 1] [0 1 0 0->0] [0 0 0 0->0]
r 0.502957346 _3_ MAC  --- 1 DSR 32 [0 ffffffff 0 800] ------- [0:255 7:255 32 0] 1 [1 1] [0 1 0 0->0] [0 0 0 0->0]
r 0.502982232 _1_ RTR  --- 1 DSR 32 [0 ffffffff 0 800] ------- [0:255 7:255 32 0] 1 [1 1] [0 1 0 0->0] [0 0 0 0->0]
r 0.502982281 _4_ RTR  --- 1 DSR 32 [0 ffffffff 0 800] ------- [0:255 7:255 32 0] 1 [1 1] [0 1 0 0->0] [0 0 0 0->0]
r 0.502982346 _3_ RTR  --- 1 DSR 32 [0 ffffffff 0 800] ------- [0:255 7:255 32 0] 1 [1 1] [0 1 0 0->0] [0 0 0 0->0]
s 0.504304048 _3_ RTR  --- 3 DSR 32 [0 0 0 0] ------- [3:255 9:255 32 0] 1 [1 1] [0 1 0 0->0] [0 0 0 0->0]
s 0.504859048 _3_ MAC  --- 3 DSR 90 [0 ffffffff 3 800] ------- [3:255 9:255 32 0] 1 [1 1] [0 1 0 0->0] [0 0 0 0->0]
r 0.505579822 _4_ MAC  --- 3 DSR 32 [0 ffffffff 3 800] ------- [3:255 9:255 32 0] 1 [1 1] [0 1 0 0->0] [0 0 0 0->0]
r 0.505579871 _6_ MAC  --- 3 DSR 32 [0 ffffffff 3 800] ------- [3:255 9:255 32 0] 1 [1 1] [0 1 0 0->0] [0 0 0 0->0]
r 0.505579875 _0_ MAC  --- 3 DSR 32 [0 ffffffff 3 800] ------- [3:255 9:255 32 0] 1 [1 1] [0 1 0 0->0] [0 0 0 0->0]
r 0.505604822 _4_ RTR  --- 3 DSR 32 [0 ffffffff 3 800] ------- [3:255 9:255 32 0] 1 [1 1] [0 1 0 0->0] [0 0 0 0->0]
r 0.505604871 _6_ RTR  --- 3 DSR 32 [0 ffffffff 3 800] ------- [3:255 9:255 32 0] 1 [1 1] [0 1 0 0->0] [0 0 0 0->0]
r 0.505604875 _0_ RTR  --- 3 DSR 32 [0 ffffffff 3 800] ------- [3:255 9:255 32 0] 1 [1 1] [0 1 0 0->0] [0 0 0 0->0]
s 0.547589112 _0_ RTR  --- 6 DSR 32 [0 0 0 0] ------- [0:255 7:255 32 0] 1 [1 2] [0 2 0 0->0] [0 0 0 0->0]
s 0.548244112 _0_ MAC  --- 6 DSR 90 [0 ffffffff 0 800] ------- [0:255 7:255 32 0] 1 [1 2] [0 2 0 0->0] [0 0 0 0->0]
r 0.548964824 _1_ MAC  --- 6 DSR 32 [0 ffffffff 0 800] ------- [0:255 7:255 32 0] 1 [1 2] [0 2 0 0->0] [0 0 0 0->0]
r 0.548964873 _4_ MAC  --- 6 DSR 32 [0 ffffffff 0 800] ------- [0:255 7:255 32 0] 1 [1 2] [0 2 0 0->0] [0 0 0 0->0]
r 0.548964939 _3_ MAC  --- 6 DSR 32 [0 ffffffff 0 800] ------- [0:255 7:255 32 0] 1 [1 2] [0 2 0 0->0] [0 0 0 0->0]
r 0.548989824 _1_ RTR  --- 6 DSR 32 [0 ffffffff 0 800] ------- [0:255 7:255 32 0] 1 [1 2] [0 2 0 0->0] [0 0 0 0->0]
r 0.548989873 _4_ RTR  --- 6 DSR 32 [0 ffffffff 0 800] ------- [0:255 7:255 32 0] 1 [1 2] [0 2 0 0->0] [0 0 0 0->0]
r 0.548989939 _3_ RTR  --- 6 DSR 32 [0 ffffffff 0 800] ------- [0:255 7:255 32 0] 1 [1 2] [0 2 0 0->0] [0 0 0 0->0]
s 0.550000000 _0_ AGT  --- 7 cbr 1000 [0 0 0 0] ------- [0:0 7:0 32 0] [1] 0 0
r 0.550000000 _0_ RTR  --- 7 cbr 1000 [0 0 0 0] ------- [0:0 7:0 32 0] [1] 0 0
s 0.550000000 _3_ AGT  --- 9 cbr 1000 [0 0 0 0] ------- [3:0 9:0 32 0] [1] 0 0
r 0.550000000 _3_ RTR  --- 9 cbr 1000 [0 0 0 0] ------- [3:0 9:0 32 0] [1] 0 0
s 0.552289769 _3_ RTR  --- 10 DSR 32 [0 0 0 0] ------- [3:255 9:255 32 0] 1 [1 2] [0 2 0 0->0] [0 0 0 0->0]
s 0.552884769 _3_ MAC  --- 10 DSR 90 [0 ffffffff 3 800] ------- [3:255 9:255 32 0] 1 [1 2] [0 2 0 0->0] [0 0 0 0->0]
f 0.553324042 _3_ RTR  --- 6 DSR 48 [0 ffffffff 0 800] ------- [0:255 7:255 32 0] 2 [1 2] [0 2 0 0->0] [0 0 0 0->0]
r 0.553605542 _4_ MAC  --- 10 DSR 32 [0 ffffffff 3 800] ------- [3:255 9:255 32 0] 1 [1 2] [0 2 0 0->0] [0 0 0 0->0]
r 0.553605592 _6_ MAC  --- 10 DSR 32 [0 ffffffff 3 800] ------- [3:255 9:255 32 0] 1 [1 2] [0 2 0 0->0] [0 0 0 0->0]
r 0.553605595 _0_ MAC  --- 10 DSR 32 [0 ffffffff 3 800] ------- [3:255 9:255 32 0] 1 [1 2] [0 2 0 0->0] [0 0 0 0->0]
r 0.553630542 _4_ RTR  --- 10 DSR 32 [0 ffffffff 3 800] ------- [3:255 9:255 32 0] 1 [1 2] [0 2 0 0->0] [0 0 0 0->0]
r 0.553630592 _6_ RTR  --- 10 DSR 32 [0 ffffffff 3 800] ------- [3:255 9:255 32 0] 1 [1 2] [0 2 0 0->0] [0 0 0 0->0]
r 0.553630595 _0_ RTR  --- 10 DSR 32 [0 ffffffff 3 800] ------- [3:255 9:255 32 0] 1 [1 2] [0 2 0 0->0] [0 0 0 0->0]
s 0.553834769 _3_ MAC  --- 6 DSR 106 [0 ffffffff 3 800] ------- [0:255 7:255 32 0] 2 [1 2] [0 2 0 0->0] [0 0 0 0->0]
r 0.554683542 _4_ MAC  --- 6 DSR 48 [0 ffffffff 3 800] ------- [0:255 7:255 32 0] 2 [1 2] [0 2 0 0->0] [0 0 0 0->0]
r 0.554683592 _6_ MAC  --- 6 DSR 48 [0 ffffffff 3 800] ------- [0:255 7:255 32 0] 2 [1 2] [0 2 0 0->0] [0 0 0 0->0]
r 0.554683595 _0_ MAC  --- 6 DSR 48 [0 ffffffff 3 800] ------- [0:255 7:255 32 0] 2 [1 2] [0 2 0 0->0] [0 0 0 0->0]
r 0.554708542 _4_ RTR  --- 6 DSR 48 [0 ffffffff 3 800] ------- [0:255 7:255 32 0] 2 [1 2] [0 2 0 0->0] [0 0 0 0->0]
r 0.554708592 _6_ RTR  --- 6 DSR 48 [0 ffffffff 3 800] ------- [0:255 7:255 32 0] 2 [1 2] [0 2 0 0->0] [0 0 0 0->0]
r 0.554708595 _0_ RTR  --- 6 DSR 48 [0 ffffffff 3 800] ------- [0:255 7:255 32 0] 2 [1 2] [0 2 0 0->0] [0 0 0 0->0]
f 0.555360667 _4_ RTR  --- 6 DSR 48 [0 ffffffff 0 800] ------- [0:255 7:255 32 0] 2 [1 2] [0 2 0 0->0] [0 0 0 0->0]
s 0.555795667 _4_ MAC  --- 6 DSR 106 [0 ffffffff 4 800] ------- [0:255 7:255 32 0] 2 [1 2] [0 2 0 0->0] [0 0 0 0->0]
r 0.556644237 _1_ MAC  --- 6 DSR 48 [0 ffffffff 4 800] ------- [0:255 7:255 32 0] 2 [1 2] [0 2 0 0->0] [0 0 0 0->0]
r 0.556644382 _2_ MAC  --- 6 DSR 48 [0 ffffffff 4 800] ------- [0:255 7:255 32 0] 2 [1 2] [0 2 0 0->0] [0 0 0 0->0]
r 0.556644427 _0_ MAC  --- 6 DSR 48 [0 ffffffff 4 800] ------- [0:255 7:255 32 0] 2 [1 2] [0 2 0 0->0] [0 0 0 0->0]
r 0.556644441 _3_ MAC  --- 6 DSR 48 [0 ffffffff 4 800] ------- [0:255 7:255 32 0] 2 [1 2] [0 2 0 0->0] [0 0 0 0->0]
r 0.556644450 _5_ MAC  --- 6 DSR 48 [0 ffffffff 4 800] ------- [0:255 7:255 32 0] 2 [1 2] [0 2 0 0->0] [0 0 0 0->0]
r 0.556669237 _1_ RTR  --- 6 DSR 48 [0 ffffffff 4 800] ------- [0:255 7:255 32 0] 2 [1 2] [0 2 0 0->0] [0 0 0 0->0]
r 0.556669382 _2_ RTR  --- 6 DSR 48 [0 ffffffff 4 800] ------- [0:255 7:255 32 0] 2 [1 2] [0 2 0 0->0] [0 0 0 0->0]
r 0.556669427 _0_ RTR  --- 6 DSR 48 [0 ffffffff 4 800] ------- [0:255 7:255 32 0] 2 [1 2] [0 2 0 0->0] [0 0 0 0->0]
r 0.556669441 _3_ RTR  --- 6 DSR 48 [0 ffffffff 4 800] ------- [0:255 7:255 32 0] 2 [1 2] [0 2 0 0->0] [0 0 0 0->0]
r 0.556669450 _5_ RTR  --- 6 DSR 48 [0 ffffffff 4 800] ------- [0:255 7:255 32 0] 2 [1 2] [0 2 0 0->0] [0 0 0 0->0]
f 0.556930204 _1_ RTR  --- 6 DSR 48 [0 ffffffff 0 800] ------- [0:255 7:255 32 0] 2 [1 2] [0 2 0 0->0] [0 0 0 0->0]
s 0.557545204 _1_ MAC  --- 6 DSR 106 [0 ffffffff 1 800] ------- [0:255 7:255 32 0] 2 [1 2] [0 2 0 0->0] [0 0 0 0->0]
r 0.558393774 _4_ MAC  --- 6 DSR 48 [0 ffffffff 1 800] ------- [0:255 7:255 32 0] 2 [1 2] [0 2 0 0->0] [0 0 0 0->0]
r 0.558393916 _0_ MAC  --- 6 DSR 48 [0 ffffffff 1 800] ------- [0:255 7:255 32 0] 2 [1 2] [0 2 0 0->0] [0 0 0 0->0]
r 0.558393975 _2_ MAC  --- 6 DSR 48 [0 ffffffff 1 800] ------- [0:255 7:255 32 0] 2 [1 2] [0 2 0 0->0] [0 0 0 0->0]
r 0.558418774 _4_ RTR  --- 6 DSR 48 [0 ffffffff 1 800] ------- [0:255 7:255 32 0] 2 [1 2] [0 2 0 0->0] [0 0 0 0->0]
r 0.558418916 _0_ RTR  --- 6 DSR 48 [0 ffffffff 1 800] ------- [0:255 7:255 32 0] 2 [1 2] [0 2 0 0->0] [0 0 0 0->0]
r 0.558418975 _2_ RTR  --- 6 DSR 48 [0 ffffffff 1 800] ------- [0:255 7:255 32 0] 2 [1 2] [0 2 0 0->0] [0 0 0 0->0]
f 0.560110909 _6_ RTR  --- 6 DSR 68 [0 ffffffff 3 800] ------- [0:255 7:255 32 0] 3 [1 2] [0 2 0 0->0] [0 0 0 0->0]
s 0.560665909 _6_ MAC  --- 6 DSR 126 [0 ffffffff 6 800] ------- [0:255 7:255 32 0] 3 [1 2] [0 2 0 0->0] [0 0 0 0->0]
r 0.561674636 _8_ MAC  --- 6 DSR 68 [0 ffffffff 6 800] ------- [0:255 7:255 32 0] 3 [1 2] [0 2 0 0->0] [0 0 0 0->0]
r 0.561674663 _5_ MAC  --- 6 DSR 68 [0 ffffffff 6 800] ------- [0:255 7:255 32 0] 3 [1 2] [0 2 0 0->0] [0 0 0 0->0]
r 0.561674732 _3_ MAC  --- 6 DSR 68 [0 ffffffff 6 800] ------- [0:255 7:255 32 0] 3 [1 2] [0 2 0 0->0] [0 0 0 0->0]
r 0.561699636 _8_ RTR  --- 6 DSR 68 [0 ffffffff 6 800] ------- [0:255 7:255 32 0] 3 [1 2] [0 2 0 0->0] [0 0 0 0->0]
r 0.561699663 _5_ RTR  --- 6 DSR 68 [0 ffffffff 6 800] ------- [0:255 7:255 32 0] 3 [1 2] [0 2 0 0->0] [0 0 0 0->0]
r 0.561699732 _3_ RTR  --- 6 DSR 68 [0 ffffffff 6 800] ------- [0:255 7:255 32 0] 3 [1 2] [0 2 0 0->0] [0 0 0 0->0]
f 0.561849680 _2_ RTR  --- 6 DSR 68 [0 ffffffff 4 800] ------- [0:255 7:255 32 0] 3 [1 2] [0 2 0 0->0] [0 0 0 0->0]
s 0.562389160 _2_ MAC  --- 6 DSR 126 [0 ffffffff 2 800] ------- [0:255 7:255 32 0] 3 [1 2] [0 2 0 0->0] [0 0 0 0->0]
f 0.562644924 _4_ RTR  --- 10 DSR 48 [0 ffffffff 3 800] ------- [3:255 9:255 32 0] 2 [1 2] [0 2 0 0->0] [0 0 0 0->0]
f 0.562687666 _0_ RTR  --- 10 DSR 48 [0 ffffffff 3 800] ------- [3:255 9:255 32 0] 2 [1 2] [0 2 0 0->0] [0 0 0 0->0]
f 0.563207787 _6_ RTR  --- 10 DSR 48 [0 ffffffff 3 800] ------- [3:255 9:255 32 0] 2 [1 2] [0 2 0 0->0] [0 0 0 0->0]
r 0.563397776 _5_ MAC  --- 6 DSR 68 [0 ffffffff 2 800] ------- [0:255 7:255 32 0] 3 [1 2] [0 2 0 0->0] [0 0 0 0->0]
r 0.563397874 _4_ MAC  --- 6 DSR 68 [0 ffffffff 2 800] ------- [0:255 7:255 32 0] 3 [1 2] [0 2 0 0->0] [0 0 0 0->0]
r 0.563397898 _7_ MAC  --- 6 DSR 68 [0 ffffffff 2 800] ------- [0:255 7:255 32 0] 3 [1 2] [0 2 0 0->0] [0 0 0 0->0]
r 0.563397930 _1_ MAC  --- 6 DSR 68 [0 ffffffff 2 800] ------- [0:255 7:255 32 0] 3 [1 2] [0 2 0 0->0] [0 0 0 0->0]
r 0.563422776 _5_ RTR  --- 6 DSR 68 [0 ffffffff 2 800] ------- [0:255 7:255 32 0] 3 [1 2] [0 2 0 0->0] [0 0 0 0->0]
r 0.563422874 _4_ RTR  --- 6 DSR 68 [0 ffffffff 2 800] ------- [0:255 7:255 32 0] 3 [1 2] [0 2 0 0->0] [0 0 0 0->0]
r 0.563422898 _7_ RTR  --- 6 DSR 68 [0 ffffffff 2 800] ------- [0:255 7:255 32 0] 3 [1 2] [0 2 0 0->0] [0 0 0 0->0]
r 0.563422930 _1_ RTR  --- 6 DSR 68 [0 ffffffff 2 800] ------- [0:255 7:255 32 0] 3 [1 2] [0 2 0 0->0] [0 0 0 0->0]
s 0.563787874 _4_ MAC  --- 10 DSR 106 [0 ffffffff 4 800] ------- [3:255 9:255 32 0] 2 [1 2] [0 2 0 0->0] [0 0 0 0->0]
r 0.564636444 _1_ MAC  --- 10 DSR 48 [0 ffffffff 4 800] ------- [3:255 9:255 32 0] 2 [1 2] [0 2 0 0->0] [0 0 0 0->0]
r 0.564636589 _2_ MAC  --- 10 DSR 48 [0 ffffffff 4 800] ------- [3:255 9:255 32 0] 2 [1 2] [0 2 0 0->0] [0 0 0 0->0]
r 0.564636635 _0_ MAC  --- 10 DSR 48 [0 ffffffff 4 800] ------- [3:255 9:255 32 0] 2 [1 2] [0 2 0 0->0] [0 0 0 0->0]
r 0.564636648 _3_ MAC  --- 10 DSR 48 [0 ffffffff 4 800] ------- [3:255 9:255 32 0] 2 [1 2] [0 2 0 0->0] [0 0 0 0->0]
r 0.564636658 _5_ MAC  --- 10 DSR 48 [0 ffffffff 4 800] ------- [3:255 9:255 32 0] 2 [1 2] [0 2 0 0->0] [0 0 0 0->0]
r 0.564661444 _1_ RTR  --- 10 DSR 48 [0 ffffffff 4 800] ------- [3:255 9:255 32 0] 2 [1 2] [0 2 0 0->0] [0 0 0 0->0]
r 0.564661589 _2_ RTR  --- 10 DSR 48 [0 ffffffff 4 800] ------- [3:255 9:255 32 0] 2 [1 2] [0 2 0 0->0] [0 0 0 0->0]
r 0.564661635 _0_ RTR  --- 10 DSR 48 [0 ffffffff 4 800] ------- [3:255 9:255 32 0] 2 [1 2] [0 2 0 0->0] [0 0 0 0->0]
r 0.564661648 _3_ RTR  --- 10 DSR 48 [0 ffffffff 4 800] ------- [3:255 9:255 32 0] 2 [1 2] [0 2 0 0->0] [0 0 0 0->0]
r 0.564661658 _5_ RTR  --- 10 DSR 48 [0 ffffffff 4 800] ------- [3:255 9:255 32 0] 2 [1 2] [0 2 0 0->0] [0 0 0 0->0]
s 0.565006635 _0_ MAC  --- 10 DSR 106 [0 ffffffff 0 800] ------- [3:255 9:255 32 0] 2 [1 2] [0 2 0 0->0] [0 0 0 0->0]
f 0.565077319 _2_ RTR  --- 10 DSR 68 [0 ffffffff 4 800] ------- [3:255 9:255 32 0] 3 [1 2] [0 2 0 0->0] [0 0 0 0->0]
f 0.565435631 _5_ RTR  --- 10 DSR 68 [0 ffffffff 4 800] ------- [3:255 9:255 32 0] 3 [1 2] [0 2 0 0->0] [0 0 0 0->0]
f 0.565479246 _5_ RTR  --- 6 DSR 68 [0 ffffffff 4 800] ------- [0:255 7:255 32 0] 3 [1 2] [0 2 0 0->0] [0 0 0 0->0]
r 0.565855347 _1_ MAC  --- 10 DSR 48 [0 ffffffff 0 800] ------- [3:255 9:255 32 0] 2 [1 2] [0 2 0 0->0] [0 0 0 0->0]
r 0.565855395 _4_ MAC  --- 10 DSR 48 [0 ffffffff 0 800] ------- [3:255 9:255 32 0] 2 [1 2] [0 2 0 0->0] [0 0 0 0->0]
r 0.565855461 _3_ MAC  --- 10 DSR 48 [0 ffffffff 0 800] ------- [3:255 9:255 32 0] 2 [1 2] [0 2 0 0->0] [0 0 0 0->0]
r 0.565880347 _1_ RTR  --- 10 DSR 48 [0 ffffffff 0 800] ------- [3:255 9:255 32 0] 2 [1 2] [0 2 0 0->0] [0 0 0 0->0]
r 0.565880395 _4_ RTR  --- 10 DSR 48 [0 ffffffff 0 800] ------- [3:255 9:255 32 0] 2 [1 2] [0 2 0 0->0] [0 0 0 0->0]
r 0.565880461 _3_ RTR  --- 10 DSR 48 [0 ffffffff 0 800] ------- [3:255 9:255 32 0] 2 [1 2] [0 2 0 0->0] [0 0 0 0->0]
s 0.566227183 _7_ RTR  --- 13 DSR 60 [0 0 0 0] ------- [7:255 0:255 254 2] 4 [0 2] [1 2 4 0->7] [0 0 0 0->0]
s 0.566342183 _7_ MAC  --- 0 ARP 86 [0 ffffffff 7 806] ------- [REQUEST 7/7 0/2]
f 0.566590486 _1_ RTR  --- 10 DSR 68 [0 ffffffff 4 800] ------- [3:255 9:255 32 0] 3 [1 2] [0 2 0 0->0] [0 0 0 0->0]
r 0.567030623 _5_ MAC  --- 0 ARP 28 [0 ffffffff 7 806] ------- [REQUEST 7/7 0/2]
r 0.567030795 _9_ MAC  --- 0 ARP 28 [0 ffffffff 7 806] ------- [REQUEST 7/7 0/2]
r 0.567030903 _8_ MAC  --- 0 ARP 28 [0 ffffffff 7 806] ------- [REQUEST 7/7 0/2]
r 0.567030922 _2_ MAC  --- 0 ARP 28 [0 ffffffff 7 806] ------- [REQUEST 7/7 0/2]
s 0.567340623 _5_ MAC  --- 10 DSR 126 [0 ffffffff 5 800] ------- [3:255 9:255 32 0] 3 [1 2] [0 2 0 0->0] [0 0 0 0->0]
f 0.568272201 _8_ RTR  --- 6 DSR 92 [0 ffffffff 6 800] ------- [0:255 7:255 32 0] 4 [1 2] [0 2 0 0->0] [0 0 0 0->0]
r 0.568349063 _7_ MAC  --- 10 DSR 68 [0 ffffffff 5 800] ------- [3:255 9:255 32 0] 3 [1 2] [0 2 0 0->0] [0 0 0 0->0]
r 0.568349239 _2_ MAC  --- 10 DSR 68 [0 ffffffff 5 800] ------- [3:255 9:255 32 0] 3 [1 2] [0 2 0 0->0] [0 0 0 0->0]
r 0.568349279 _8_ MAC  --- 10 DSR 68 [0 ffffffff 5 800] ------- [3:255 9:255 32 0] 3 [1 2] [0 2 0 0->0] [0 0 0 0->0]
r 0.568349377 _6_ MAC  --- 10 DSR 68 [0 ffffffff 5 800] ------- [3:255 9:255 32 0] 3 [1 2] [0 2 0 0->0] [0 0 0 0->0]
r 0.568349407 _4_ MAC  --- 10 DSR 68 [0 ffffffff 5 800] ------- [3:255 9:255 32 0] 3 [1 2] [0 2 0 0->0] [0 0 0 0->0]
r 0.568374063 _7_ RTR  --- 10 DSR 68 [0 ffffffff 5 800] ------- [3:255 9:255 32 0] 3 [1 2] [0 2 0 0->0] [0 0 0 0->0]
r 0.568374239 _2_ RTR  --- 10 DSR 68 [0 ffffffff 5 800] ------- [3:255 9:255 32 0] 3 [1 2] [0 2 0 0->0] [0 0 0 0->0]
r 0.568374279 _8_ RTR  --- 10 DSR 68 [0 ffffffff 5 800] ------- [3:255 9:255 32 0] 3 [1 2] [0 2 0 0->0] [0 0 0 0->0]
r 0.568374377 _6_ RTR  --- 10 DSR 68 [0 ffffffff 5 800] ------- [3:255 9:255 32 0] 3 [1 2] [0 2 0 0->0] [0 0 0 0->0]
r 0.568374407 _4_ RTR  --- 10 DSR 68 [0 ffffffff 5 800] ------- [3:255 9:255 32 0] 3 [1 2] [0 2 0 0->0] [0 0 0 0->0]
s 0.568519279 _8_ MAC  --- 6 DSR 150 [0 ffffffff 8 800] ------- [0:255 7:255 32 0] 4 [1 2] [0 2 0 0->0] [0 0 0 0->0]
r 0.569719872 _9_ MAC  --- 6 DSR 92 [0 ffffffff 8 800] ------- [0:255 7:255 32 0] 4 [1 2] [0 2 0 0->0] [0 0 0 0->0]
r 0.569719934 _5_ MAC  --- 6 DSR 92 [0 ffffffff 8 800] ------- [0:255 7:255 32 0] 4 [1 2] [0 2 0 0->0] [0 0 0 0->0]
r 0.569719999 _7_ MAC  --- 6 DSR 92 [0 ffffffff 8 800] ------- [0:255 7:255 32 0] 4 [1 2] [0 2 0 0->0] [0 0 0 0->0]
r 0.569720006 _6_ MAC  --- 6 DSR 92 [0 ffffffff 8 800] ------- [0:255 7:255 32 0] 4 [1 2] [0 2 0 0->0] [0 0 0 0->0]
r 0.569744872 _9_ RTR  --- 6 DSR 92 [0 ffffffff 8 800] ------- [0:255 7:255 32 0] 4 [1 2] [0 2 0 0->0] [0 0 0 0->0]
r 0.569744934 _5_ RTR  --- 6 DSR 92 [0 ffffffff 8 800] ------- [0:255 7:255 32 0] 4 [1 2] [0 2 0 0->0] [0 0 0 0->0]
r 0.569744999 _7_ RTR  --- 6 DSR 92 [0 ffffffff 8 800] ------- [0:255 7:255 32 0] 4 [1 2] [0 2 0 0->0] [0 0 0 0->0]
r 0.569745006 _6_ RTR  --- 6 DSR 92 [0 ffffffff 8 800] ------- [0:255 7:255 32 0] 4 [1 2] [0 2 0 0->0] [0 0 0 0->0]
s 0.570070006 _6_ MAC  --- 10 DSR 106 [0 ffffffff 6 800] ------- [3:255 9:255 32 0] 2 [1 2] [0 2 0 0->0] [0 0 0 0->0]
r 0.570918734 _8_ MAC  --- 10 DSR 48 [0 ffffffff 6 800] ------- [3:255 9:255 32 0] 2 [1 2] [0 2 0 0->0] [0 0 0 0->0]
r 0.570918760 _5_ MAC  --- 10 DSR 48 [0 ffffffff 6 800] ------- [3:255 9:255 32 0] 2 [1 2] [0 2 0 0->0] [0 0 0 0->0]
r 0.570918829 _3_ MAC  --- 10 DSR 48 [0 ffffffff 6 800] ------- [3:255 9:255 32 0] 2 [1 2] [0 2 0 0->0] [0 0 0 0->0]
r 0.570943734 _8_ RTR  --- 10 DSR 48 [0 ffffffff 6 800] ------- [3:255 9:255 32 0] 2 [1 2] [0 2 0 0->0] [0 0 0 0->0]
r 0.570943760 _5_ RTR  --- 10 DSR 48 [0 ffffffff 6 800] ------- [3:255 9:255 32 0] 2 [1 2] [0 2 0 0->0] [0 0 0 0->0]
r 0.570943829 _3_ RTR  --- 10 DSR 48 [0 ffffffff 6 800] ------- [3:255 9:255 32 0] 2 [1 2] [0 2 0 0->0] [0 0 0 0->0]
s 0.571008760 _5_ MAC  --- 6 DSR 126 [0 ffffffff 5 800] ------- [0:255 7:255 32 0] 3 [1 2] [0 2 0 0->0] [0 0 0 0->0]
s 0.571043414 _7_ RTR  --- 14 DSR 68 [0 0 0 0] ------- [7:255 0:255 254 8] 5 [0 2] [1 2 5 0->7] [0 0 0 0->0]
r 0.572017200 _7_ MAC  --- 6 DSR 68 [0 ffffffff 5 800] ------- [0:255 7:255 32 0] 3 [1 2] [0 2 0 0->0] [0 0 0 0->0]
r 0.572017376 _2_ MAC  --- 6 DSR 68 [0 ffffffff 5 800] ------- [0:255 7:255 32 0] 3 [1 2] [0 2 0 0->0] [0 0 0 0->0]
r 0.572017415 _8_ MAC  --- 6 DSR 68 [0 ffffffff 5 800] ------- [0:255 7:255 32 0] 3 [1 2] [0 2 0 0->0] [0 0 0 0->0]
r 0.572017514 _6_ MAC  --- 6 DSR 68 [0 ffffffff 5 800] ------- [0:255 7:255 32 0] 3 [1 2] [0 2 0 0->0] [0 0 0 0->0]
r 0.572017543 _4_ MAC  --- 6 DSR 68 [0 ffffffff 5 800] ------- [0:255 7:255 32 0] 3 [1 2] [0 2 0 0->0] [0 0 0 0->0]
r 0.572042200 _7_ RTR  --- 6 DSR 68 [0 ffffffff 5 800] ------- [0:255 7:255 32 0] 3 [1 2] [0 2 0 0->0] [0 0 0 0->0]
r 0.572042376 _2_ RTR  --- 6 DSR 68 [0 ffffffff 5 800] ------- [0:255 7:255 32 0] 3 [1 2] [0 2 0 0->0] [0 0 0 0->0]
r 0.572042415 _8_ RTR  --- 6 DSR 68 [0 ffffffff 5 800] ------- [0:255 7:255 32 0] 3 [1 2] [0 2 0 0->0] [0 0 0 0->0]
r 0.572042514 _6_ RTR  --- 6 DSR 68 [0 ffffffff 5 800] ------- [0:255 7:255 32 0] 3 [1 2] [0 2 0 0->0] [0 0 0 0->0]
r 0.572042543 _4_ RTR  --- 6 DSR 68 [0 ffffffff 5 800] ------- [0:255 7:255 32 0] 3 [1 2] [0 2 0 0->0] [0 0 0 0->0]
s 0.572187376 _2_ MAC  --- 10 DSR 126 [0 ffffffff 2 800] ------- [3:255 9:255 32 0] 3 [1 2] [0 2 0 0->0] [0 0 0 0->0]
f 0.572677676 _7_ RTR  --- 10 DSR 92 [0 ffffffff 5 800] ------- [3:255 9:255 32 0] 4 [1 2] [0 2 0 0->0] [0 0 0 0->0]
r 0.573195992 _5_ MAC  --- 10 DSR 68 [0 ffffffff 2 800] ------- [3:255 9:255 32 0] 3 [1 2] [0 2 0 0->0] [0 0 0 0->0]
r 0.573196091 _4_ MAC  --- 10 DSR 68 [0 ffffffff 2 800] ------- [3:255 9:255 32 0] 3 [1 2] [0 2 0 0->0] [0 0 0 0->0]
r 0.573196114 _7_ MAC  --- 10 DSR 68 [0 ffffffff 2 800] ------- [3:255 9:255 32 0] 3 [1 2] [0 2 0 0->0] [0 0 0 0->0]
r 0.573196146 _1_ MAC  --- 10 DSR 68 [0 ffffffff 2 800] ------- [3:255 9:255 32 0] 3 [1 2] [0 2 0 0->0] [0 0 0 0->0]
r 0.573220992 _5_ RTR  --- 10 DSR 68 [0 ffffffff 2 800] ------- [3:255 9:255 32 0] 3 [1 2] [0 2 0 0->0] [0 0 0 0->0]
r 0.573221091 _4_ RTR  --- 10 DSR 68 [0 ffffffff 2 800] ------- [3:255 9:255 32 0] 3 [1 2] [0 2 0 0->0] [0 0 0 0->0]
r 0.573221114 _7_ RTR  --- 10 DSR 68 [0 ffffffff 2 800] ------- [3:255 9:255 32 0] 3 [1 2] [0 2 0 0->0] [0 0 0 0->0]
r 0.573221146 _1_ RTR  --- 10 DSR 68 [0 ffffffff 2 800] ------- [3:255 9:255 32 0] 3 [1 2] [0 2 0 0->0] [0 0 0 0->0]
s 0.573286114 _7_ MAC  --- 0 ARP 86 [0 ffffffff 7 806] ------- [REQUEST 7/7 0/8]
r 0.573974554 _5_ MAC  --- 0 ARP 28 [0 ffffffff 7 806] ------- [REQUEST 7/7 0/8]
r 0.573974726 _9_ MAC  --- 0 ARP 28 [0 ffffffff 7 806] ------- [REQUEST 7/7 0/8]
r 0.573974835 _8_ MAC  --- 0 ARP 28 [0 ffffffff 7 806] ------- [REQUEST 7/7 0/8]
r 0.573974853 _2_ MAC  --- 0 ARP 28 [0 ffffffff 7 806] ------- [REQUEST 7/7 0/8]
s 0.574069835 _8_ MAC  --- 0 RTS 44 [52e 7 8 0] 
r 0.574422555 _7_ MAC  --- 0 RTS 44 [52e 7 8 0] 
s 0.574432555 _7_ MAC  --- 0 CTS 38 [3f4 8 0 0] 
r 0.574737275 _8_ MAC  --- 0 CTS 38 [3f4 8 0 0] 
s 0.574747275 _8_ MAC  --- 0 ARP 86 [13a 7 8 806] ------- [REPLY 8/8 7/7]
f 0.575179595 _9_ RTR  --- 6 DSR 120 [0 ffffffff 8 800] ------- [0:255 7:255 32 0] 5 [1 2] [0 2 0 0->0] [0 0 0 0->0]
r 0.575435995 _7_ MAC  --- 0 ARP 28 [13a 7 8 806] ------- [REPLY 8/8 7/7]
s 0.575445995 _7_ MAC  --- 0 ACK 38 [0 8 0 0] 
r 0.575750715 _8_ MAC  --- 0 ACK 38 [0 8 0 0] 
s 0.575900607 _9_ MAC  --- 6 DSR 178 [0 ffffffff 9 800] ------- [0:255 7:255 32 0] 5 [1 2] [0 2 0 0->0] [0 0 0 0->0]
s 0.576425463 _1_ MAC  --- 10 DSR 126 [0 ffffffff 1 800] ------- [3:255 9:255 32 0] 3 [1 2] [0 2 0 0->0] [0 0 0 0->0]
f 0.576674733 _8_ RTR  --- 10 DSR 92 [0 ffffffff 5 800] ------- [3:255 9:255 32 0] 4 [1 2] [0 2 0 0->0] [0 0 0 0->0]
r 0.577325200 _8_ MAC  --- 6 DSR 120 [0 ffffffff 9 800] ------- [0:255 7:255 32 0] 5 [1 2] [0 2 0 0->0] [0 0 0 0->0]
r 0.577325219 _7_ MAC  --- 6 DSR 120 [0 ffffffff 9 800] ------- [0:255 7:255 32 0] 5 [1 2] [0 2 0 0->0] [0 0 0 0->0]
r 0.577350200 _8_ RTR  --- 6 DSR 120 [0 ffffffff 9 800] ------- [0:255 7:255 32 0] 5 [1 2] [0 2 0 0->0] [0 0 0 0->0]
r 0.577350219 _7_ RTR  --- 6 DSR 120 [0 ffffffff 9 800] ------- [0:255 7:255 32 0] 5 [1 2] [0 2 0 0->0] [0 0 0 0->0]
D 0.577434032 _4_ MAC  COL 10 DSR 126 [0 ffffffff 1 800] ------- [3:255 9:255 32 0] 3 [1 2] [0 2 0 0->0] [0 0 0 0->0]
r 0.577434175 _0_ MAC  --- 10 DSR 68 [0 ffffffff 1 800] ------- [3:255 9:255 32 0] 3 [1 2] [0 2 0 0->0] [0 0 0 0->0]
D 0.577434233 _2_ MAC  COL 10 DSR 126 [0 ffffffff 1 800] ------- [3:255 9:255 32 0] 3 [1 2] [0 2 0 0->0] [0 0 0 0->0]
r 0.577459175 _0_ RTR  --- 10 DSR 68 [0 ffffffff 1 800] ------- [3:255 9:255 32 0] 3 [1 2] [0 2 0 0->0] [0 0 0 0->0]
s 0.577948233 _2_ MAC  --- 0 RTS 44 [52e 7 2 0] 
r 0.578300972 _7_ MAC  --- 0 RTS 44 [52e 7 2 0] 
s 0.578310972 _7_ MAC  --- 0 CTS 38 [3f4 2 0 0] 
r 0.578615710 _2_ MAC  --- 0 CTS 38 [3f4 2 0 0] 
s 0.578625710 _2_ MAC  --- 0 ARP 86 [13a 7 2 806] ------- [REPLY 2/2 7/7]
r 0.579314449 _7_ MAC  --- 0 ARP 28 [13a 7 2 806] ------- [REPLY 2/2 7/7]
s 0.579324449 _7_ MAC  --- 0 ACK 38 [0 2 0 0] 
r 0.579629187 _2_ MAC  --- 0 ACK 38 [0 2 0 0] 
s 0.579958449 _7_ MAC  --- 10 DSR 150 [0 ffffffff 7 800] ------- [3:255 9:255 32 0] 4 [1 2] [0 2 0 0->0] [0 0 0 0->0]
s 0.580101133 _7_ RTR  --- 15 DSR 60 [0 0 0 0] ------- [7:255 0:255 254 5] 4 [0 2] [1 2 4 0->7] [0 0 0 0->0]
r 0.581158888 _5_ MAC  --- 10 DSR 92 [0 ffffffff 7 800] ------- [3:255 9:255 32 0] 4 [1 2] [0 2 0 0->0] [0 0 0 0->0]
r 0.581159061 _9_ MAC  --- 10 DSR 92 [0 ffffffff 7 800] ------- [3:255 9:255 32 0] 4 [1 2] [0 2 0 0->0] [0 0 0 0->0]
r 0.581159169 _8_ MAC  --- 10 DSR 92 [0 ffffffff 7 800] ------- [3:255 9:255 32 0] 4 [1 2] [0 2 0 0->0] [0 0 0 0->0]
r 0.581159187 _2_ MAC  --- 10 DSR 92 [0 ffffffff 7 800] ------- [3:255 9:255 32 0] 4 [1 2] [0 2 0 0->0] [0 0 0 0->0]
r 0.581183888 _5_ RTR  --- 10 DSR 92 [0 ffffffff 7 800] ------- [3:255 9:255 32 0] 4 [1 2] [0 2 0 0->0] [0 0 0 0->0]
r 0.581184061 _9_ RTR  --- 10 DSR 92 [0 ffffffff 7 800] ------- [3:255 9:255 32 0] 4 [1 2] [0 2 0 0->0] [0 0 0 0->0]
r 0.581184169 _8_ RTR  --- 10 DSR 92 [0 ffffffff 7 800] ------- [3:255 9:255 32 0] 4 [1 2] [0 2 0 0->0] [0 0 0 0->0]
r 0.581184187 _2_ RTR  --- 10 DSR 92 [0 ffffffff 7 800] ------- [3:255 9:255 32 0] 4 [1 2] [0 2 0 0->0] [0 0 0 0->0]
s 0.581248449 _7_ MAC  --- 0 RTS 44 [66e 8 7 0] 
s 0.581249169 _8_ MAC  --- 10 DSR 150 [0 ffffffff 8 800] ------- [3:255 9:255 32 0] 4 [1 2] [0 2 0 0->0] [0 0 0 0->0]
s 0.582122686 _7_ RTR  --- 16 DSR 76 [0 0 0 0] ------- [7:255 0:255 254 9] 6 [0 2] [1 2 6 0->7] [0 0 0 0->0]
D 0.582449762 _9_ MAC  COL 10 DSR 150 [0 ffffffff 8 800] ------- [3:255 9:255 32 0] 4 [1 2] [0 2 0 0->0] [0 0 0 0->0]
D 0.582449824 _5_ MAC  COL 10 DSR 150 [0 ffffffff 8 800] ------- [3:255 9:255 32 0] 4 [1 2] [0 2 0 0->0] [0 0 0 0->0]
D 0.582449896 _6_ MAC  COL 10 DSR 150 [0 ffffffff 8 800] ------- [3:255 9:255 32 0] 4 [1 2] [0 2 0 0->0] [0 0 0 0->0]
s 0.584103889 _7_ MAC  --- 0 RTS 44 [66e 8 7 0] 
r 0.584456609 _8_ MAC  --- 0 RTS 44 [66e 8 7 0] 
s 0.584466609 _8_ MAC  --- 0 CTS 38 [534 7 0 0] 
r 0.584771329 _7_ MAC  --- 0 CTS 38 [534 7 0 0] 
s 0.584781329 _7_ MAC  --- 14 DSR 126 [13a 8 7 800] ------- [7:255 0:255 254 8] 5 [0 2] [1 2 5 0->7] [0 0 0 0->0]
r 0.585790049 _8_ MAC  --- 14 DSR 68 [13a 8 7 800] ------- [7:255 0:255 254 8] 5 [0 2] [1 2 5 0->7] [0 0 0 0->0]
s 0.585800049 _8_ MAC  --- 0 ACK 38 [0 7 0 0] 
r 0.585815049 _8_ RTR  --- 14 DSR 68 [13a 8 7 800] ------- [7:255 0:255 254 8] 5 [0 2] [1 2 5 0->7] [0 0 0 0->0]
f 0.585815049 _8_ RTR  --- 14 DSR 68 [13a 8 7 800] ------- [7:255 0:255 253 6] 5 [0 2] [1 2 5 0->7] [0 0 0 0->0]
r 0.586104769 _7_ MAC  --- 0 ACK 38 [0 7 0 0] 
s 0.586494049 _8_ MAC  --- 0 ARP 86 [0 ffffffff 8 806] ------- [REQUEST 8/8 0/6]
s 0.586494769 _7_ MAC  --- 0 RTS 44 [62e 2 7 0] 
D 0.586495508 _2_ MAC  COL 0 RTS 44 [62e 2 7 0] 
D 0.587182642 _9_ MAC  COL 0 ARP 86 [0 ffffffff 8 806] ------- [REQUEST 8/8 0/6]
D 0.587182705 _5_ MAC  COL 0 ARP 86 [0 ffffffff 8 806] ------- [REQUEST 8/8 0/6]
D 0.587182777 _6_ MAC  COL 0 ARP 86 [0 ffffffff 8 806] ------- [REQUEST 8/8 0/6]
s 0.588225702 _9_ RTR  --- 17 DSR 68 [0 0 0 0] ------- [9:255 3:255 254 7] 5 [0 2] [1 2 5 3->9] [0 0 0 0->0]
s 0.588776769 _7_ MAC  --- 0 RTS 44 [62e 2 7 0] 
r 0.589129508 _2_ MAC  --- 0 RTS 44 [62e 2 7 0] 
s 0.589139508 _2_ MAC  --- 0 CTS 38 [4f4 7 0 0] 
r 0.589444246 _7_ MAC  --- 0 CTS 38 [4f4 7 0 0] 
s 0.589454246 _7_ MAC  --- 13 DSR 118 [13a 2 7 800] ------- [7:255 0:255 254 2] 4 [0 2] [1 2 4 0->7] [0 0 0 0->0]
r 0.590398985 _2_ MAC  --- 13 DSR 60 [13a 2 7 800] ------- [7:255 0:255 254 2] 4 [0 2] [1 2 4 0->7] [0 0 0 0->0]
s 0.590408985 _2_ MAC  --- 0 ACK 38 [0 7 0 0] 
r 0.590423985 _2_ RTR  --- 13 DSR 60 [13a 2 7 800] ------- [7:255 0:255 254 2] 4 [0 2] [1 2 4 0->7] [0 0 0 0->0]
f 0.590423985 _2_ RTR  --- 13 DSR 60 [13a 2 7 800] ------- [7:255 0:255 253 4] 4 [0 2] [1 2 4 0->7] [0 0 0 0->0]
r 0.590713723 _7_ MAC  --- 0 ACK 38 [0 7 0 0] 
s 0.591003723 _7_ MAC  --- 0 ARP 86 [0 ffffffff 7 806] ------- [REQUEST 7/7 0/5]
r 0.591692163 _5_ MAC  --- 0 ARP 28 [0 ffffffff 7 806] ------- [REQUEST 7/7 0/5]
r 0.591692335 _9_ MAC  --- 0 ARP 28 [0 ffffffff 7 806] ------- [REQUEST 7/7 0/5]
r 0.591692443 _8_ MAC  --- 0 ARP 28 [0 ffffffff 7 806] ------- [REQUEST 7/7 0/5]
r 0.591692462 _2_ MAC  --- 0 ARP 28 [0 ffffffff 7 806] ------- [REQUEST 7/7 0/5]
s 0.591762335 _9_ MAC  --- 0 RTS 44 [66e 7 9 0] 
r 0.592114947 _7_ MAC  --- 0 RTS 44 [66e 7 9 0] 
s 0.592124947 _7_ MAC  --- 0 CTS 38 [534 9 0 0] 
r 0.592429559 _9_ MAC  --- 0 CTS 38 [534 9 0 0] 
s 0.592439559 _9_ MAC  --- 17 DSR 126 [13a 7 9 800] ------- [9:255 3:255 254 7] 5 [0 2] [1 2 5 3->9] [0 0 0 0->0]
r 0.593448171 _7_ MAC  --- 17 DSR 68 [13a 7 9 800] ------- [9:255 3:255 254 7] 5 [0 2] [1 2 5 3->9] [0 0 0 0->0]
s 0.593458171 _7_ MAC  --- 0 ACK 38 [0 9 0 0] 
r 0.593473171 _7_ RTR  --- 17 DSR 68 [13a 7 9 800] ------- [9:255 3:255 254 7] 5 [0 2] [1 2 5 3->9] [0 0 0 0->0]
f 0.593473171 _7_ RTR  --- 17 DSR 68 [13a 7 9 800] ------- [9:255 3:255 253 5] 5 [0 2] [1 2 5 3->9] [0 0 0 0->0]
D 0.593473171 _7_ IFQ  ARP 15 DSR 60 [0 0 7 800] ------- [7:255 0:255 254 5] 4 [0 2] [1 2 4 0->7] [0 0 0 0->0]
r 0.593762783 _9_ MAC  --- 0 ACK 38 [0 9 0 0] 
s 0.593892171 _7_ MAC  --- 0 ARP 86 [0 ffffffff 7 806] ------- [REQUEST 7/7 0/9]
r 0.594580611 _5_ MAC  --- 0 ARP 28 [0 ffffffff 7 806] ------- [REQUEST 7/7 0/9]
r 0.594580783 _9_ MAC  --- 0 ARP 28 [0 ffffffff 7 806] ------- [REQUEST 7/7 0/9]
r 0.594580891 _8_ MAC  --- 0 ARP 28 [0 ffffffff 7 806] ------- [REQUEST 7/7 0/9]
r 0.594580910 _2_ MAC  --- 0 ARP 28 [0 ffffffff 7 806] ------- [REQUEST 7/7 0/9]
s 0.594650171 _7_ MAC  --- 0 ARP 86 [0 ffffffff 7 806] ------- [REQUEST 7/7 0/5]
r 0.595338611 _5_ MAC  --- 0 ARP 28 [0 ffffffff 7 806] ------- [REQUEST 7/7 0/5]
r 0.595338783 _9_ MAC  --- 0 ARP 28 [0 ffffffff 7 806] ------- [REQUEST 7/7 0/5]
r 0.595338891 _8_ MAC  --- 0 ARP 28 [0 ffffffff 7 806] ------- [REQUEST 7/7 0/5]
r 0.595338910 _2_ MAC  --- 0 ARP 28 [0 ffffffff 7 806] ------- [REQUEST 7/7 0/5]
s 0.595408783 _9_ MAC  --- 0 RTS 44 [52e 7 9 0] 
r 0.595761395 _7_ MAC  --- 0 RTS 44 [52e 7 9 0] 
s 0.595771395 _7_ MAC  --- 0 CTS 38 [3f4 9 0 0] 
r 0.596076007 _9_ MAC  --- 0 CTS 38 [3f4 9 0 0] 
s 0.596086007 _9_ MAC  --- 0 ARP 86 [13a 7 9 806] ------- [REPLY 9/9 7/7]
r 0.596774619 _7_ MAC  --- 0 ARP 28 [13a 7 9 806] ------- [REPLY 9/9 7/7]
s 0.596784619 _7_ MAC  --- 0 ACK 38 [0 9 0 0] 
r 0.597089231 _9_ MAC  --- 0 ACK 38 [0 9 0 0] 
s 0.597289355 _2_ MAC  --- 0 ARP 86 [0 ffffffff 2 806] ------- [REQUEST 2/2 0/4]
r 0.597977971 _5_ MAC  --- 0 ARP 28 [0 ffffffff 2 806] ------- [REQUEST 2/2 0/4]
r 0.597978069 _4_ MAC  --- 0 ARP 28 [0 ffffffff 2 806] ------- [REQUEST 2/2 0/4]
r 0.597978093 _7_ MAC  --- 0 ARP 28 [0 ffffffff 2 806] ------- [REQUEST 2/2 0/4]
r 0.597978125 _1_ MAC  --- 0 ARP 28 [0 ffffffff 2 806] ------- [REQUEST 2/2 0/4]
s 0.598267971 _5_ MAC  --- 0 RTS 44 [52e 7 5 0] 
r 0.598620410 _7_ MAC  --- 0 RTS 44 [52e 7 5 0] 
s 0.598630410 _7_ MAC  --- 0 CTS 38 [3f4 5 0 0] 
r 0.598934850 _5_ MAC  --- 0 CTS 38 [3f4 5 0 0] 
s 0.598944850 _5_ MAC  --- 0 ARP 86 [13a 7 5 806] ------- [REPLY 5/5 7/7]
r 0.599633290 _7_ MAC  --- 0 ARP 28 [13a 7 5 806] ------- [REPLY 5/5 7/7]
s 0.599643290 _7_ MAC  --- 0 ACK 38 [0 5 0 0] 
r 0.599947730 _5_ MAC  --- 0 ACK 38 [0 5 0 0] 
s 0.600000000 _0_ AGT  --- 20 cbr 1000 [0 0 0 0] ------- [0:0 7:0 32 0] [2] 0 0
r 0.600000000 _0_ RTR  --- 20 cbr 1000 [0 0 0 0] ------- [0:0 7:0 32 0] [2] 0 0
s 0.600000000 _3_ AGT  --- 22 cbr 1000 [0 0 0 0] ------- [3:0 9:0 32 0] [2] 0 0
r 0.600000000 _3_ RTR  --- 22 cbr 1000 [0 0 0 0] ------- [3:0 9:0 32 0] [2] 0 0
s 0.600117290 _7_ MAC  --- 0 RTS 44 [6ae 9 7 0] 
r 0.600469902 _9_ MAC  --- 0 RTS 44 [6ae 9 7 0] 
s 0.600479902 _9_ MAC  --- 0 CTS 38 [574 7 0 0] 
r 0.600784514 _7_ MAC  --- 0 CTS 38 [574 7 0 0] 
s 0.600794514 _7_ MAC  --- 16 DSR 134 [13a 9 7 800] ------- [7:255 0:255 254 9] 6 [0 2] [1 2 6 0->7] [0 0 0 0->0]
r 0.601867126 _9_ MAC  --- 16 DSR 76 [13a 9 7 800] ------- [7:255 0:255 254 9] 6 [0 2] [1 2 6 0->7] [0 0 0 0->0]
s 0.601877126 _9_ MAC  --- 0 ACK 38 [0 7 0 0] 
r 0.601892126 _9_ RTR  --- 16 DSR 76 [13a 9 7 800] ------- [7:255 0:255 254 9] 6 [0 2] [1 2 6 0->7] [0 0 0 0->0]