Sconfig 0.00000 tap: on snoop: rts? on errs? on
Sconfig 0.00000 salvage: on !bd replies? on
Sconfig 0.00000 grat error: on grat reply: on
Sconfig 0.00000 $reply for props: on ring 0 search: on
Sconfig 0.00000 using MOBICACHE
s 1.000000000 _0_ AGT  --- 0 cbr 1000 [0 0 0 0] ------- [0:0 6:0 32 0] [0] 0 0
r 1.000000000 _0_ RTR  --- 0 cbr 1000 [0 0 0 0] ------- [0:0 6:0 32 0] [0] 0 0
s 1.000000000 _14_ AGT  --- 2 cbr 1000 [0 0 0 0] ------- [14:0 15:0 32 0] [0] 0 0
r 1.000000000 _14_ RTR  --- 2 cbr 1000 [0 0 0 0] ------- [14:0 15:0 32 0] [0] 0 0
s 1.003712390 _0_ RTR  --- 1 DSR 32 [0 0 0 0] ------- [0:255 6:255 32 0] 1 [1 1] [0 1 0 0->0] [0 0 0 0->0]
s 1.003807390 _0_ MAC  --- 1 DSR 90 [0 ffffffff 0 800] ------- [0:255 6:255 32 0] 1 [1 1] [0 1 0 0->0] [0 0 0 0->0]
r 1.004527708 _11_ MAC  --- 1 DSR 32 [0 ffffffff 0 800] ------- [0:255 6:255 32 0] 1 [1 1] [0 1 0 0->0] [0 0 0 0->0]
r 1.004527828 _2_ MAC  --- 1 DSR 32 [0 ffffffff 0 800] ------- [0:255 6:255 32 0] 1 [1 1] [0 1 0 0->0] [0 0 0 0->0]
r 1.004527850 _10_ MAC  --- 1 DSR 32 [0 ffffffff 0 800] ------- [0:255 6:255 32 0] 1 [1 1] [0 1 0 0->0] [0 0 0 0->0]
r 1.004527876 _1_ MAC  --- 1 DSR 32 [0 ffffffff 0 800] ------- [0:255 6:255 32 0] 1 [1 1] [0 1 0 0->0] [0 0 0 0->0]
r 1.004528076 _9_ MAC  --- 1 DSR 32 [0 ffffffff 0 800] ------- [0:255 6:255 32 0] 1 [1 1] [0 1 0 0->0] [0 0 0 0->0]
r 1.004528122 _3_ MAC  --- 1 DSR 32 [0 ffffffff 0 800] ------- [0:255 6:255 32 0] 1 [1 1] [0 1 0 0->0] [0 0 0 0->0]
r 1.004552708 _11_ RTR  --- 1 DSR 32 [0 ffffffff 0 800] ------- [0:255 6:255 32 0] 1 [1 1] [0 1 0 0->0] [0 0 0 0->0]
r 1.004552828 _2_ RTR  --- 1 DSR 32 [0 ffffffff 0 800] ------- [0:255 6:255 32 0] 1 [1 1] [0 1 0 0->0] [0 0 0 0->0]
r 1.004552850 _10_ RTR  --- 1 DSR 32 [0 ffffffff 0 800] ------- [0:255 6:255 32 0] 1 [1 1] [0 1 0 0->0] [0 0 0 0->0]
r 1.004552876 _1_ RTR  --- 1 DSR 32 [0 ffffffff 0 800] ------- [0:255 6:255 32 0] 1 [1 1] [0 1 0 0->0] [0 0 0 0->0]
r 1.004553076 _9_ RTR  --- 1 DSR 32 [0 ffffffff 0 800] ------- [0:255 6:255 32 0] 1 [1 1] [0 1 0 0->0] [0 0 0 0->0]
r 1.004553122 _3_ RTR  --- 1 DSR 32 [0 ffffffff 0 800] ------- [0:255 6:255 32 0] 1 [1 1] [0 1 0 0->0] [0 0 0 0->0]
s 1.009871041 _14_ RTR  --- 3 DSR 32 [0 0 0 0] ------- [14:255 15:255 32 0] 1 [1 1] [0 1 0 0->0] [0 0 0 0->0]
s 1.009986041 _14_ MAC  --- 3 DSR 90 [0 ffffffff e 800] ------- [14:255 15:255 32 0] 1 [1 1] [0 1 0 0->0] [0 0 0 0->0]
r 1.010706373 _13_ MAC  --- 3 DSR 32 [0 ffffffff e 800] ------- [14:255 15:255 32 0] 1 [1 1] [0 1 0 0->0] [0 0 0 0->0]
r 1.010706421 _10_ MAC  --- 3 DSR 32 [0 ffffffff e 800] ------- [14:255 15:255 32 0] 1 [1 1] [0 1 0 0->0] [0 0 0 0->0]
r 1.010706467 _9_ MAC  --- 3 DSR 32 [0 ffffffff e 800] ------- [14:255 15:255 32 0] 1 [1 1] [0 1 0 0->0] [0 0 0 0->0]
r 1.010706661 _11_ MAC  --- 3 DSR 32 [0 ffffffff e 800] ------- [14:255 15:255 32 0] 1 [1 1] [0 1 0 0->0] [0 0 0 0->0]
r 1.010706718 _8_ MAC  --- 3 DSR 32 [0 ffffffff e 800] ------- [14:255 15:255 32 0] 1 [1 1] [0 1 0 0->0] [0 0 0 0->0]
r 1.010706836 _12_ MAC  --- 3 DSR 32 [0 ffffffff e 800] ------- [14:255 15:255 32 0] 1 [1 1] [0 1 0 0->0] [0 0 0 0->0]
r 1.010731373 _13_ RTR  --- 3 DSR 32 [0 ffffffff e 800] ------- [14:255 15:255 32 0] 1 [1 1] [0 1 0 0->0] [0 0 0 0->0]
r 1.010731421 _10_ RTR  --- 3 DSR 32 [0 ffffffff e 800] ------- [14:255 15:255 32 0] 1 [1 1] [0 1 0 0->0] [0 0 0 0->0]
r 1.010731467 _9_ RTR  --- 3 DSR 32 [0 ffffffff e 800] ------- [14:255 15:255 32 0] 1 [1 1] [0 1 0 0->0] [0 0 0 0->0]
r 1.010731661 _11_ RTR  --- 3 DSR 32 [0 ffffffff e 800] ------- [14:255 15:255 32 0] 1 [1 1] [0 1 0 0->0] [0 0 0 0->0]
r 1.010731718 _8_ RTR  --- 3 DSR 32 [0 ffffffff e 800] ------- [14:255 15:255 32 0] 1 [1 1] [0 1 0 0->0] [0 0 0 0->0]
r 1.010731836 _12_ RTR  --- 3 DSR 32 [0 ffffffff e 800] ------- [14:255 15:255 32 0] 1 [1 1] [0 1 0 0->0] [0 0 0 0->0]
s 1.050000000 _0_ AGT  --- 6 cbr 1000 [0 0 0 0] ------- [0:0 6:0 32 0] [1] 0 0
r 1.050000000 _0_ RTR  --- 6 cbr 1000 [0 0 0 0] ------- [0:0 6:0 32 0] [1] 0 0
s 1.050000000 _14_ AGT  --- 8 cbr 1000 [0 0 0 0] ------- [14:0 15:0 32 0] [1] 0 0
r 1.050000000 _14_ RTR  --- 8 cbr 1000 [0 0 0 0] ------- [14:0 15:0 32 0] [1] 0 0
s 1.050325818 _14_ RTR  --- 9 DSR 32 [0 0 0 0] ------- [14:255 15:255 32 0] 1 [1 2] [0 2 0 0->0] [0 0 0 0->0]
s 1.050880818 _14_ MAC  --- 9 DSR 90 [0 ffffffff e 800] ------- [14:255 15:255 32 0] 1 [1 2] [0 2 0 0->0] [0 0 0 0->0]
r 1.051601150 _13_ MAC  --- 9 DSR 32 [0 ffffffff e 800] ------- [14:255 15:255 32 0] 1 [1 2] [0 2 0 0->0] [0 0 0 0->0]
r 1.051601198 _10_ MAC  --- 9 DSR 32 [0 ffffffff e 800] ------- [14:255 15:255 32 0] 1 [1 2] [0 2 0 0->0] [0 0 0 0->0]
r 1.051601244 _9_ MAC  --- 9 DSR 32 [0 ffffffff e 800] ------- [14:255 15:255 32 0] 1 [1 2] [0 2 0 0->0] [0 0 0 0->0]
r 1.051601438 _11_ MAC  --- 9 DSR 32 [0 ffffffff e 800] ------- [14:255 15:255 32 0] 1 [1 2] [0 2 0 0->0] [0 0 0 0->0]
r 1.051601495 _8_ MAC  --- 9 DSR 32 [0 ffffffff e 800] ------- [14:255 15:255 32 0] 1 [1 2] [0 2 0 0->0] [0 0 0 0->0]
r 1.051601613 _12_ MAC  --- 9 DSR 32 [0 ffffffff e 800] ------- [14:255 15:255 32 0] 1 [1 2] [0 2 0 0->0] [0 0 0 0->0]
r 1.051626150 _13_ RTR  --- 9 DSR 32 [0 ffffffff e 800] ------- [14:255 15:255 32 0] 1 [1 2] [0 2 0 0->0] [0 0 0 0->0]
r 1.051626198 _10_ RTR  --- 9 DSR 32 [0 ffffffff e 800] ------- [14:255 15:255 32 0] 1 [1 2] [0 2 0 0->0] [0 0 0 0->0]
r 1.051626244 _9_ RTR  --- 9 DSR 32 [0 ffffffff e 800] ------- [14:255 15:255 32 0] 1 [1 2] [0 2 0 0->0] [0 0 0 0->0]
r 1.051626438 _11_ RTR  --- 9 DSR 32 [0 ffffffff e 800] ------- [14:255 15:255 32 0] 1 [1 2] [0 2 0 0->0] [0 0 0 0->0]
r 1.051626495 _8_ RTR  --- 9 DSR 32 [0 ffffffff e 800] ------- [14:255 15:255 32 0] 1 [1 2] [0 2 0 0->0] [0 0 0 0->0]
r 1.051626613 _12_ RTR  --- 9 DSR 32 [0 ffffffff e 800] ------- [14:255 15:255 32 0] 1 [1 2] [0 2 0 0->0] [0 0 0 0->0]
f 1.053476919 _10_ RTR  --- 9 DSR 48 [0 ffffffff e 800] ------- [14:255 15:255 32 0] 2 [1 2] [0 2 0 0->0] [0 0 0 0->0]
s 1.053551919 _10_ MAC  --- 9 DSR 106 [0 ffffffff a 800] ------- [14:255 15:255 32 0] 2 [1 2] [0 2 0 0->0] [0 0 0 0->0]
f 1.053747344 _11_ RTR  --- 9 DSR 48 [0 ffffffff e 800] ------- [14:255 15:255 32 0] 2 [1 2] [0 2 0 0->0] [0 0 0 0->0]
r 1.054400215 _11_ MAC  --- 9 DSR 48 [0 ffffffff a 800] ------- [14:255 15:255 32 0] 2 [1 2] [0 2 0 0->0] [0 0 0 0->0]
r 1.054400278 _9_ MAC  --- 9 DSR 48 [0 ffffffff a 800] ------- [14:255 15:255 32 0] 2 [1 2] [0 2 0 0->0] [0 0 0 0->0]
r 1.054400299 _14_ MAC  --- 9 DSR 48 [0 ffffffff a 800] ------- [14:255 15:255 32 0] 2 [1 2] [0 2 0 0->0] [0 0 0 0->0]
r 1.054400379 _0_ MAC  --- 9 DSR 48 [0 ffffffff a 800] ------- [14:255 15:255 32 0] 2 [1 2] [0 2 0 0->0] [0 0 0 0->0]
r 1.054400481 _1_ MAC  --- 9 DSR 48 [0 ffffffff a 800] ------- [14:255 15:255 32 0] 2 [1 2] [0 2 0 0->0] [0 0 0 0->0]
r 1.054400573 _8_ MAC  --- 9 DSR 48 [0 ffffffff a 800] ------- [14:255 15:255 32 0] 2 [1 2] [0 2 0 0->0] [0 0 0 0->0]
r 1.054400581 _13_ MAC  --- 9 DSR 48 [0 ffffffff a 800] ------- [14:255 15:255 32 0] 2 [1 2] [0 2 0 0->0] [0 0 0 0->0]
r 1.054400710 _2_ MAC  --- 9 DSR 48 [0 ffffffff a 800] ------- [14:255 15:255 32 0] 2 [1 2] [0 2 0 0->0] [0 0 0 0->0]
r 1.054425215 _11_ RTR  --- 9 DSR 48 [0 ffffffff a 800] ------- [14:255 15:255 32 0] 2 [1 2] [0 2 0 0->0] [0 0 0 0->0]
r 1.054425278 _9_ RTR  --- 9 DSR 48 [0 ffffffff a 800] ------- [14:255 15:255 32 0] 2 [1 2] [0 2 0 0->0] [0 0 0 0->0]
r 1.054425299 _14_ RTR  --- 9 DSR 48 [0 ffffffff a 800] ------- [14:255 15:255 32 0] 2 [1 2] [0 2 0 0->0] [0 0 0 0->0]
r 1.054425379 _0_ RTR  --- 9 DSR 48 [0 ffffffff a 800] ------- [14:255 15:255 32 0] 2 [1 2] [0 2 0 0->0] [0 0 0 0->0]
r 1.054425481 _1_ RTR  --- 9 DSR 48 [0 ffffffff a 800] ------- [14:255 15:255 32 0] 2 [1 2] [0 2 0 0->0] [0 0 0 0->0]
r 1.054425573 _8_ RTR  --- 9 DSR 48 [0 ffffffff a 800] ------- [14:255 15:255 32 0] 2 [1 2] [0 2 0 0->0] [0 0 0 0->0]
r 1.054425581 _13_ RTR  --- 9 DSR 48 [0 ffffffff a 800] ------- [14:255 15:255 32 0] 2 [1 2] [0 2 0 0->0] [0 0 0 0->0]
r 1.054425710 _2_ RTR  --- 9 DSR 48 [0 ffffffff a 800] ------- [14:255 15:255 32 0] 2 [1 2] [0 2 0 0->0] [0 0 0 0->0]
s 1.054610215 _11_ MAC  --- 9 DSR 106 [0 ffffffff b 800] ------- [14:255 15:255 32 0] 2 [1 2] [0 2 0 0->0] [0 0 0 0->0]
r 1.055458511 _10_ MAC  --- 9 DSR 48 [0 ffffffff b 800] ------- [14:255 15:255 32 0] 2 [1 2] [0 2 0 0->0] [0 0 0 0->0]
r 1.055458533 _0_ MAC  --- 9 DSR 48 [0 ffffffff b 800] ------- [14:255 15:255 32 0] 2 [1 2] [0 2 0 0->0] [0 0 0 0->0]
r 1.055458835 _14_ MAC  --- 9 DSR 48 [0 ffffffff b 800] ------- [14:255 15:255 32 0] 2 [1 2] [0 2 0 0->0] [0 0 0 0->0]
r 1.055458856 _9_ MAC  --- 9 DSR 48 [0 ffffffff b 800] ------- [14:255 15:255 32 0] 2 [1 2] [0 2 0 0->0] [0 0 0 0->0]
r 1.055458890 _1_ MAC  --- 9 DSR 48 [0 ffffffff b 800] ------- [14:255 15:255 32 0] 2 [1 2] [0 2 0 0->0] [0 0 0 0->0]
r 1.055458963 _2_ MAC  --- 9 DSR 48 [0 ffffffff b 800] ------- [14:255 15:255 32 0] 2 [1 2] [0 2 0 0->0] [0 0 0 0->0]
r 1.055483511 _10_ RTR  --- 9 DSR 48 [0 ffffffff b 800] ------- [14:255 15:255 32 0] 2 [1 2] [0 2 0 0->0] [0 0 0 0->0]
r 1.055483533 _0_ RTR  --- 9 DSR 48 [0 ffffffff b 800] ------- [14:255 15:255 32 0] 2 [1 2] [0 2 0 0->0] [0 0 0 0->0]
r 1.055483835 _14_ RTR  --- 9 DSR 48 [0 ffffffff b 800] ------- [14:255 15:255 32 0] 2 [1 2] [0 2 0 0->0] [0 0 0 0->0]
r 1.055483856 _9_ RTR  --- 9 DSR 48 [0 ffffffff b 800] ------- [14:255 15:255 32 0] 2 [1 2] [0 2 0 0->0] [0 0 0 0->0]
r 1.055483890 _1_ RTR  --- 9 DSR 48 [0 ffffffff b 800] ------- [14:255 15:255 32 0] 2 [1 2] [0 2 0 0->0] [0 0 0 0->0]
r 1.055483963 _2_ RTR  --- 9 DSR 48 [0 ffffffff b 800] ------- [14:255 15:255 32 0] 2 [1 2] [0 2 0 0->0] [0 0 0 0->0]
f 1.056468259 _13_ RTR  --- 9 DSR 48 [0 ffffffff e 800] ------- [14:255 15:255 32 0] 2 [1 2] [0 2 0 0->0] [0 0 0 0->0]
s 1.056623259 _13_ MAC  --- 9 DSR 106 [0 ffffffff d 800] ------- [14:255 15:255 32 0] 2 [1 2] [0 2 0 0->0] [0 0 0 0->0]
f 1.056975677 _2_ RTR  --- 9 DSR 68 [0 ffffffff a 800] ------- [14:255 15:255 32 0] 3 [1 2] [0 2 0 0->0] [0 0 0 0->0]
r 1.057471591 _14_ MAC  --- 9 DSR 48 [0 ffffffff d 800] ------- [14:255 15:255 32 0] 2 [1 2] [0 2 0 0->0] [0 0 0 0->0]
r 1.057471772 _9_ MAC  --- 9 DSR 48 [0 ffffffff d 800] ------- [14:255 15:255 32 0] 2 [1 2] [0 2 0 0->0] [0 0 0 0->0]
r 1.057471780 _12_ MAC  --- 9 DSR 48 [0 ffffffff d 800] ------- [14:255 15:255 32 0] 2 [1 2] [0 2 0 0->0] [0 0 0 0->0]
r 1.057471884 _8_ MAC  --- 9 DSR 48 [0 ffffffff d 800] ------- [14:255 15:255 32 0] 2 [1 2] [0 2 0 0->0] [0 0 0 0->0]
r 1.057471921 _10_ MAC  --- 9 DSR 48 [0 ffffffff d 800] ------- [14:255 15:255 32 0] 2 [1 2] [0 2 0 0->0] [0 0 0 0->0]
r 1.057496591 _14_ RTR  --- 9 DSR 48 [0 ffffffff d 800] ------- [14:255 15:255 32 0] 2 [1 2] [0 2 0 0->0] [0 0 0 0->0]
r 1.057496772 _9_ RTR  --- 9 DSR 48 [0 ffffffff d 800] ------- [14:255 15:255 32 0] 2 [1 2] [0 2 0 0->0] [0 0 0 0->0]
r 1.057496780 _12_ RTR  --- 9 DSR 48 [0 ffffffff d 800] ------- [14:255 15:255 32 0] 2 [1 2] [0 2 0 0->0] [0 0 0 0->0]
r 1.057496884 _8_ RTR  --- 9 DSR 48 [0 ffffffff d 800] ------- [14:255 15:255 32 0] 2 [1 2] [0 2 0 0->0] [0 0 0 0->0]
r 1.057496921 _10_ RTR  --- 9 DSR 48 [0 ffffffff d 800] ------- [14:255 15:255 32 0] 2 [1 2] [0 2 0 0->0] [0 0 0 0->0]
s 1.058066607 _2_ MAC  --- 9 DSR 126 [0 ffffffff 2 800] ------- [14:255 15:255 32 0] 3 [1 2] [0 2 0 0->0] [0 0 0 0->0]
r 1.059074951 _3_ MAC  --- 9 DSR 68 [0 ffffffff 2 800] ------- [14:255 15:255 32 0] 3 [1 2] [0 2 0 0->0] [0 0 0 0->0]
r 1.059075004 _1_ MAC  --- 9 DSR 68 [0 ffffffff 2 800] ------- [14:255 15:255 32 0] 3 [1 2] [0 2 0 0->0] [0 0 0 0->0]
r 1.059075044 _0_ MAC  --- 9 DSR 68 [0 ffffffff 2 800] ------- [14:255 15:255 32 0] 3 [1 2] [0 2 0 0->0] [0 0 0 0->0]
r 1.059075323 _4_ MAC  --- 9 DSR 68 [0 ffffffff 2 800] ------- [14:255 15:255 32 0] 3 [1 2] [0 2 0 0->0] [0 0 0 0->0]
r 1.059075355 _11_ MAC  --- 9 DSR 68 [0 ffffffff 2 800] ------- [14:255 15:255 32 0] 3 [1 2] [0 2 0 0->0] [0 0 0 0->0]
r 1.059075366 _5_ MAC  --- 9 DSR 68 [0 ffffffff 2 800] ------- [14:255 15:255 32 0] 3 [1 2] [0 2 0 0->0] [0 0 0 0->0]
r 1.059075397 _10_ MAC  --- 9 DSR 68 [0 ffffffff 2 800] ------- [14:255 15:255 32 0] 3 [1 2] [0 2 0 0->0] [0 0 0 0->0]
r 1.059099951 _3_ RTR  --- 9 DSR 68 [0 ffffffff 2 800] ------- [14:255 15:255 32 0] 3 [1 2] [0 2 0 0->0] [0 0 0 0->0]
r 1.059100004 _1_ RTR  --- 9 DSR 68 [0 ffffffff 2 800] ------- [14:255 15:255 32 0] 3 [1 2] [0 2 0 0->0] [0 0 0 0->0]
r 1.059100044 _0_ RTR  --- 9 DSR 68 [0 ffffffff 2 800] ------- [14:255 15:255 32 0] 3 [1 2] [0 2 0 0->0] [0 0 0 0->0]
r 1.059100323 _4_ RTR  --- 9 DSR 68 [0 ffffffff 2 800] ------- [14:255 15:255 32 0] 3 [1 2] [0 2 0 0->0] [0 0 0 0->0]
r 1.059100355 _11_ RTR  --- 9 DSR 68 [0 ffffffff 2 800] ------- [14:255 15:255 32 0] 3 [1 2] [0 2 0 0->0] [0 0 0 0->0]
r 1.059100366 _5_ RTR  --- 9 DSR 68 [0 ffffffff 2 800] ------- [14:255 15:255 32 0] 3 [1 2] [0 2 0 0->0] [0 0 0 0->0]
r 1.059100397 _10_ RTR  --- 9 DSR 68 [0 ffffffff 2 800] ------- [14:255 15:255 32 0] 3 [1 2] [0 2 0 0->0] [0 0 0 0->0]
f 1.059213637 _8_ RTR  --- 9 DSR 48 [0 ffffffff e 800] ------- [14:255 15:255 32 0] 2 [1 2] [0 2 0 0->0] [0 0 0 0->0]
f 1.059371892 _9_ RTR  --- 9 DSR 48 [0 ffffffff e 800] ------- [14:255 15:255 32 0] 2 [1 2] [0 2 0 0->0] [0 0 0 0->0]
f 1.059500331 _0_ RTR  --- 9 DSR 68 [0 ffffffff a 800] ------- [14:255 15:255 32 0] 3 [1 2] [0 2 0 0->0] [0 0 0 0->0]
s 1.059595331 _0_ MAC  --- 9 DSR 126 [0 ffffffff 0 800] ------- [14:255 15:255 32 0] 3 [1 2] [0 2 0 0->0] [0 0 0 0->0]
s 1.059732291 _0_ RTR  --- 7 DSR 32 [0 0 0 0] ------- [0:255 6:255 32 0] 1 [1 2] [0 2 0 0->0] [0 0 0 0->0]
f 1.060215509 _12_ RTR  --- 9 DSR 48 [0 ffffffff e 800] ------- [14:255 15:255 32 0] 2 [1 2] [0 2 0 0->0] [0 0 0 0->0]
r 1.060603650 _11_ MAC  --- 9 DSR 68 [0 ffffffff 0 800] ------- [14:255 15:255 32 0] 3 [1 2] [0 2 0 0->0] [0 0 0 0->0]
r 1.060603769 _2_ MAC  --- 9 DSR 68 [0 ffffffff 0 800] ------- [14:255 15:255 32 0] 3 [1 2] [0 2 0 0->0] [0 0 0 0->0]
r 1.060603791 _10_ MAC  --- 9 DSR 68 [0 ffffffff 0 800] ------- [14:255 15:255 32 0] 3 [1 2] [0 2 0 0->0] [0 0 0 0->0]
r 1.060603818 _1_ MAC  --- 9 DSR 68 [0 ffffffff 0 800] ------- [14:255 15:255 32 0] 3 [1 2] [0 2 0 0->0] [0 0 0 0->0]
r 1.060604017 _9_ MAC  --- 9 DSR 68 [0 ffffffff 0 800] ------- [14:255 15:255 32 0] 3 [1 2] [0 2 0 0->0] [0 0 0 0->0]
r 1.060604064 _3_ MAC  --- 9 DSR 68 [0 ffffffff 0 800] ------- [14:255 15:255 32 0] 3 [1 2] [0 2 0 0->0] [0 0 0 0->0]
r 1.060628650 _11_ RTR  --- 9 DSR 68 [0 ffffffff 0 800] ------- [14:255 15:255 32 0] 3 [1 2] [0 2 0 0->0] [0 0 0 0->0]
r 1.060628769 _2_ RTR  --- 9 DSR 68 [0 ffffffff 0 800] ------- [14:255 15:255 32 0] 3 [1 2] [0 2 0 0->0] [0 0 0 0->0]
r 1.060628791 _10_ RTR  --- 9 DSR 68 [0 ffffffff 0 800] ------- [14:255 15:255 32 0] 3 [1 2] [0 2 0 0->0] [0 0 0 0->0]
r 1.060628818 _1_ RTR  --- 9 DSR 68 [0 ffffffff 0 800] ------- [14:255 15:255 32 0] 3 [1 2] [0 2 0 0->0] [0 0 0 0->0]
r 1.060629017 _9_ RTR  --- 9 DSR 68 [0 ffffffff 0 800] ------- [14:255 15:255 32 0] 3 [1 2] [0 2 0 0->0] [0 0 0 0->0]
r 1.060629064 _3_ RTR  --- 9 DSR 68 [0 ffffffff 0 800] ------- [14:255 15:255 32 0] 3 [1 2] [0 2 0 0->0] [0 0 0 0->0]
s 1.060733331 _0_ MAC  --- 7 DSR 90 [0 ffffffff 0 800] ------- [0:255 6:255 32 0] 1 [1 2] [0 2 0 0->0] [0 0 0 0->0]
s 1.060734017 _9_ MAC  --- 9 DSR 106 [0 ffffffff 9 800] ------- [14:255 15:255 32 0] 2 [1 2] [0 2 0 0->0] [0 0 0 0->0]
D 1.060734376 _10_ MAC  COL 7 DSR 90 [0 ffffffff 0 800] ------- [0:255 6:255 32 0] 1 [1 2] [0 2 0 0->0] [0 0 0 0->0]
D 1.060734494 _1_ MAC  COL 7 DSR 90 [0 ffffffff 0 800] ------- [0:255 6:255 32 0] 1 [1 2] [0 2 0 0->0] [0 0 0 0->0]
D 1.060734897 _3_ MAC  COL 7 DSR 90 [0 ffffffff 0 800] ------- [0:255 6:255 32 0] 1 [1 2] [0 2 0 0->0] [0 0 0 0->0]
r 1.061453650 _11_ MAC  --- 7 DSR 32 [0 ffffffff 0 800] ------- [0:255 6:255 32 0] 1 [1 2] [0 2 0 0->0] [0 0 0 0->0]
r 1.061453769 _2_ MAC  --- 7 DSR 32 [0 ffffffff 0 800] ------- [0:255 6:255 32 0] 1 [1 2] [0 2 0 0->0] [0 0 0 0->0]
r 1.061478650 _11_ RTR  --- 7 DSR 32 [0 ffffffff 0 800] ------- [0:255 6:255 32 0] 1 [1 2] [0 2 0 0->0] [0 0 0 0->0]
r 1.061478769 _2_ RTR  --- 7 DSR 32 [0 ffffffff 0 800] ------- [0:255 6:255 32 0] 1 [1 2] [0 2 0 0->0] [0 0 0 0->0]
D 1.061582317 _8_ MAC  COL 9 DSR 106 [0 ffffffff 9 800] ------- [14:255 15:255 32 0] 2 [1 2] [0 2 0 0->0] [0 0 0 0->0]
D 1.061582376 _10_ MAC  COL 9 DSR 106 [0 ffffffff 9 800] ------- [14:255 15:255 32 0] 2 [1 2] [0 2 0 0->0] [0 0 0 0->0]
D 1.061582444 _14_ MAC  COL 9 DSR 106 [0 ffffffff 9 800] ------- [14:255 15:255 32 0] 2 [1 2] [0 2 0 0->0] [0 0 0 0->0]
D 1.061582494 _1_ MAC  COL 9 DSR 106 [0 ffffffff 9 800] ------- [14:255 15:255 32 0] 2 [1 2] [0 2 0 0->0] [0 0 0 0->0]
D 1.061582531 _13_ MAC  COL 9 DSR 106 [0 ffffffff 9 800] ------- [14:255 15:255 32 0] 2 [1 2] [0 2 0 0->0] [0 0 0 0->0]
D 1.061582673 _7_ MAC  COL 9 DSR 106 [0 ffffffff 9 800] ------- [14:255 15:255 32 0] 2 [1 2] [0 2 0 0->0] [0 0 0 0->0]
D 1.061582688 _12_ MAC  COL 9 DSR 106 [0 ffffffff 9 800] ------- [14:255 15:255 32 0] 2 [1 2] [0 2 0 0->0] [0 0 0 0->0]
D 1.061582718 _5_ MAC  COL 9 DSR 106 [0 ffffffff 9 800] ------- [14:255 15:255 32 0] 2 [1 2] [0 2 0 0->0] [0 0 0 0->0]
s 1.062056317 _8_ MAC  --- 9 DSR 106 [0 ffffffff 8 800] ------- [14:255 15:255 32 0] 2 [1 2] [0 2 0 0->0] [0 0 0 0->0]
r 1.062904616 _9_ MAC  --- 9 DSR 48 [0 ffffffff 8 800] ------- [14:255 15:255 32 0] 2 [1 2] [0 2 0 0->0] [0 0 0 0->0]
r 1.062904681 _7_ MAC  --- 9 DSR 48 [0 ffffffff 8 800] ------- [14:255 15:255 32 0] 2 [1 2] [0 2 0 0->0] [0 0 0 0->0]
r 1.062904819 _5_ MAC  --- 9 DSR 48 [0 ffffffff 8 800] ------- [14:255 15:255 32 0] 2 [1 2] [0 2 0 0->0] [0 0 0 0->0]
r 1.062904831 _12_ MAC  --- 9 DSR 48 [0 ffffffff 8 800] ------- [14:255 15:255 32 0] 2 [1 2] [0 2 0 0->0] [0 0 0 0->0]
r 1.062904847 _1_ MAC  --- 9 DSR 48 [0 ffffffff 8 800] ------- [14:255 15:255 32 0] 2 [1 2] [0 2 0 0->0] [0 0 0 0->0]
r 1.062904941 _13_ MAC  --- 9 DSR 48 [0 ffffffff 8 800] ------- [14:255 15:255 32 0] 2 [1 2] [0 2 0 0->0] [0 0 0 0->0]
r 1.062904970 _10_ MAC  --- 9 DSR 48 [0 ffffffff 8 800] ------- [14:255 15:255 32 0] 2 [1 2] [0 2 0 0->0] [0 0 0 0->0]
r 1.062904993 _14_ MAC  --- 9 DSR 48 [0 ffffffff 8 800] ------- [14:255 15:255 32 0] 2 [1 2] [0 2 0 0->0] [0 0 0 0->0]
r 1.062905000 _15_ MAC  --- 9 DSR 48 [0 ffffffff 8 800] ------- [14:255 15:255 32 0] 2 [1 2] [0 2 0 0->0] [0 0 0 0->0]
r 1.062905128 _4_ MAC  --- 9 DSR 48 [0 ffffffff 8 800] ------- [14:255 15:255 32 0] 2 [1 2] [0 2 0 0->0] [0 0 0 0->0]
r 1.062929616 _9_ RTR  --- 9 DSR 48 [0 ffffffff 8 800] ------- [14:255 15:255 32 0] 2 [1 2] [0 2 0 0->0] [0 0 0 0->0]
r 1.062929681 _7_ RTR  --- 9 DSR 48 [0 ffffffff 8 800] ------- [14:255 15:255 32 0] 2 [1 2] [0 2 0 0->0] [0 0 0 0->0]
r 1.062929819 _5_ RTR  --- 9 DSR 48 [0 ffffffff 8 800] ------- [14:255 15:255 32 0] 2 [1 2] [0 2 0 0->0] [0 0 0 0->0]
r 1.062929831 _12_ RTR  --- 9 DSR 48 [0 ffffffff 8 800] ------- [14:255 15:255 32 0] 2 [1 2] [0 2 0 0->0] [0 0 0 0->0]
r 1.062929847 _1_ RTR  --- 9 DSR 48 [0 ffffffff 8 800] ------- [14:255 15:255 32 0] 2 [1 2] [0 2 0 0->0] [0 0 0 0->0]
r 1.062929941 _13_ RTR  --- 9 DSR 48 [0 ffffffff 8 800] ------- [14:255 15:255 32 0] 2 [1 2] [0 2 0 0->0] [0 0 0 0->0]
r 1.062929970 _10_ RTR  --- 9 DSR 48 [0 ffffffff 8 800] ------- [14:255 15:255 32 0] 2 [1 2] [0 2 0 0->0] [0 0 0 0->0]
r 1.062929993 _14_ RTR  --- 9 DSR 48 [0 ffffffff 8 800] ------- [14:255 15:255 32 0] 2 [1 2] [0 2 0 0->0] [0 0 0 0->0]
r 1.062930000 _15_ RTR  --- 9 DSR 48 [0 ffffffff 8 800] ------- [14:255 15:255 32 0] 2 [1 2] [0 2 0 0->0] [0 0 0 0->0]
r 1.062930128 _4_ RTR  --- 9 DSR 48 [0 ffffffff 8 800] ------- [14:255 15:255 32 0] 2 [1 2] [0 2 0 0->0] [0 0 0 0->0]
s 1.063174831 _12_ MAC  --- 9 DSR 106 [0 ffffffff c 800] ------- [14:255 15:255 32 0] 2 [1 2] [0 2 0 0->0] [0 0 0 0->0]
s 1.063464020 _15_ RTR  --- 10 DSR 52 [0 0 0 0] ------- [15:255 14:255 254 8] 3 [0 2] [1 2 3 14->15] [0 0 0 0->0]
f 1.063477785 _1_ RTR  --- 9 DSR 68 [0 ffffffff a 800] ------- [14:255 15:255 32 0] 3 [1 2] [0 2 0 0->0] [0 0 0 0->0]
f 1.063721868 _5_ RTR  --- 9 DSR 92 [0 ffffffff 2 800] ------- [14:255 15:255 32 0] 4 [1 2] [0 2 0 0->0] [0 0 0 0->0]
r 1.064023345 _8_ MAC  --- 9 DSR 48 [0 ffffffff c 800] ------- [14:255 15:255 32 0] 2 [1 2] [0 2 0 0->0] [0 0 0 0->0]
r 1.064023352 _13_ MAC  --- 9 DSR 48 [0 ffffffff c 800] ------- [14:255 15:255 32 0] 2 [1 2] [0 2 0 0->0] [0 0 0 0->0]
r 1.064023457 _7_ MAC  --- 9 DSR 48 [0 ffffffff c 800] ------- [14:255 15:255 32 0] 2 [1 2] [0 2 0 0->0] [0 0 0 0->0]
r 1.064023477 _15_ MAC  --- 9 DSR 48 [0 ffffffff c 800] ------- [14:255 15:255 32 0] 2 [1 2] [0 2 0 0->0] [0 0 0 0->0]
r 1.064023502 _9_ MAC  --- 9 DSR 48 [0 ffffffff c 800] ------- [14:255 15:255 32 0] 2 [1 2] [0 2 0 0->0] [0 0 0 0->0]
r 1.064023627 _14_ MAC  --- 9 DSR 48 [0 ffffffff c 800] ------- [14:255 15:255 32 0] 2 [1 2] [0 2 0 0->0] [0 0 0 0->0]
r 1.064048345 _8_ RTR  --- 9 DSR 48 [0 ffffffff c 800] ------- [14:255 15:255 32 0] 2 [1 2] [0 2 0 0->0] [0 0 0 0->0]
r 1.064048352 _13_ RTR  --- 9 DSR 48 [0 ffffffff c 800] ------- [14:255 15:255 32 0] 2 [1 2] [0 2 0 0->0] [0 0 0 0->0]
r 1.064048457 _7_ RTR  --- 9 DSR 48 [0 ffffffff c 800] ------- [14:255 15:255 32 0] 2 [1 2] [0 2 0 0->0] [0 0 0 0->0]
r 1.064048477 _15_ RTR  --- 9 DSR 48 [0 ffffffff c 800] ------- [14:255 15:255 32 0] 2 [1 2] [0 2 0 0->0] [0 0 0 0->0]
r 1.064048502 _9_ RTR  --- 9 DSR 48 [0 ffffffff c 800] ------- [14:255 15:255 32 0] 2 [1 2] [0 2 0 0->0] [0 0 0 0->0]
r 1.064048627 _14_ RTR  --- 9 DSR 48 [0 ffffffff c 800] ------- [14:255 15:255 32 0] 2 [1 2] [0 2 0 0->0] [0 0 0 0->0]
s 1.064153477 _15_ MAC  --- 0 ARP 86 [0 ffffffff f 806] ------- [REQUEST 15/15 0/8]
r 1.064841866 _7_ MAC  --- 0 ARP 28 [0 ffffffff f 806] ------- [REQUEST 15/15 0/8]
r 1.064841958 _6_ MAC  --- 0 ARP 28 [0 ffffffff f 806] ------- [REQUEST 15/15 0/8]
r 1.064842123 _12_ MAC  --- 0 ARP 28 [0 ffffffff f 806] ------- [REQUEST 15/15 0/8]
r 1.064842160 _8_ MAC  --- 0 ARP 28 [0 ffffffff f 806] ------- [REQUEST 15/15 0/8]
r 1.064842165 _5_ MAC  --- 0 ARP 28 [0 ffffffff f 806] ------- [REQUEST 15/15 0/8]
f 1.065019881 _2_ RTR  --- 7 DSR 48 [0 ffffffff 0 800] ------- [0:255 6:255 32 0] 2 [1 2] [0 2 0 0->0] [0 0 0 0->0]
s 1.065032165 _5_ MAC  --- 9 DSR 150 [0 ffffffff 5 800] ------- [14:255 15:255 32 0] 4 [1 2] [0 2 0 0->0] [0 0 0 0->0]
f 1.065624604 _4_ RTR  --- 9 DSR 92 [0 ffffffff 2 800] ------- [14:255 15:255 32 0] 4 [1 2] [0 2 0 0->0] [0 0 0 0->0]
f 1.065640663 _7_ RTR  --- 9 DSR 68 [0 ffffffff 8 800] ------- [14:255 15:255 32 0] 3 [1 2] [0 2 0 0->0] [0 0 0 0->0]
r 1.066232483 _4_ MAC  --- 9 DSR 92 [0 ffffffff 5 800] ------- [14:255 15:255 32 0] 4 [1 2] [0 2 0 0->0] [0 0 0 0->0]
r 1.066232510 _7_ MAC  --- 9 DSR 92 [0 ffffffff 5 800] ------- [14:255 15:255 32 0] 4 [1 2] [0 2 0 0->0] [0 0 0 0->0]
r 1.066232653 _1_ MAC  --- 9 DSR 92 [0 ffffffff 5 800] ------- [14:255 15:255 32 0] 4 [1 2] [0 2 0 0->0] [0 0 0 0->0]
r 1.066232668 _8_ MAC  --- 9 DSR 92 [0 ffffffff 5 800] ------- [14:255 15:255 32 0] 4 [1 2] [0 2 0 0->0] [0 0 0 0->0]
r 1.066232672 _3_ MAC  --- 9 DSR 92 [0 ffffffff 5 800] ------- [14:255 15:255 32 0] 4 [1 2] [0 2 0 0->0] [0 0 0 0->0]
r 1.066232729 _6_ MAC  --- 9 DSR 92 [0 ffffffff 5 800] ------- [14:255 15:255 32 0] 4 [1 2] [0 2 0 0->0] [0 0 0 0->0]
r 1.066232854 _15_ MAC  --- 9 DSR 92 [0 ffffffff 5 800] ------- [14:255 15:255 32 0] 4 [1 2] [0 2 0 0->0] [0 0 0 0->0]
r 1.066232866 _9_ MAC  --- 9 DSR 92 [0 ffffffff 5 800] ------- [14:255 15:255 32 0] 4 [1 2] [0 2 0 0->0] [0 0 0 0->0]
r 1.066232925 _2_ MAC  --- 9 DSR 92 [0 ffffffff 5 800] ------- [14:255 15:255 32 0] 4 [1 2] [0 2 0 0->0] [0 0 0 0->0]
r 1.066257483 _4_ RTR  --- 9 DSR 92 [0 ffffffff 5 800] ------- [14:255 15:255 32 0] 4 [1 2] [0 2 0 0->0] [0 0 0 0->0]
r 1.066257510 _7_ RTR  --- 9 DSR 92 [0 ffffffff 5 800] ------- [14:255 15:255 32 0] 4 [1 2] [0 2 0 0->0] [0 0 0 0->0]
r 1.066257653 _1_ RTR  --- 9 DSR 92 [0 ffffffff 5 800] ------- [14:255 15:255 32 0] 4 [1 2] [0 2 0 0->0] [0 0 0 0->0]
r 1.066257668 _8_ RTR  --- 9 DSR 92 [0 ffffffff 5 800] ------- [14:255 15:255 32 0] 4 [1 2] [0 2 0 0->0] [0 0 0 0->0]
r 1.066257672 _3_ RTR  --- 9 DSR 92 [0 ffffffff 5 800] ------- [14:255 15:255 32 0] 4 [1 2] [0 2 0 0->0] [0 0 0 0->0]
r 1.066257729 _6_ RTR  --- 9 DSR 92 [0 ffffffff 5 800] ------- [14:255 15:255 32 0] 4 [1 2] [0 2 0 0->0] [0 0 0 0->0]
r 1.066257854 _15_ RTR  --- 9 DSR 92 [0 ffffffff 5 800] ------- [14:255 15:255 32 0] 4 [1 2] [0 2 0 0->0] [0 0 0 0->0]
r 1.066257866 _9_ RTR  --- 9 DSR 92 [0 ffffffff 5 800] ------- [14:255 15:255 32 0] 4 [1 2] [0 2 0 0->0] [0 0 0 0->0]
r 1.066257925 _2_ RTR  --- 9 DSR 92 [0 ffffffff 5 800] ------- [14:255 15:255 32 0] 4 [1 2] [0 2 0 0->0] [0 0 0 0->0]
s 1.066342510 _7_ MAC  --- 9 DSR 126 [0 ffffffff 7 800] ------- [14:255 15:255 32 0] 3 [1 2] [0 2 0 0->0] [0 0 0 0->0]
r 1.067350854 _5_ MAC  --- 9 DSR 68 [0 ffffffff 7 800] ------- [14:255 15:255 32 0] 3 [1 2] [0 2 0 0->0] [0 0 0 0->0]
r 1.067350874 _8_ MAC  --- 9 DSR 68 [0 ffffffff 7 800] ------- [14:255 15:255 32 0] 3 [1 2] [0 2 0 0->0] [0 0 0 0->0]
r 1.067350899 _15_ MAC  --- 9 DSR 68 [0 ffffffff 7 800] ------- [14:255 15:255 32 0] 3 [1 2] [0 2 0 0->0] [0 0 0 0->0]
r 1.067351034 _6_ MAC  --- 9 DSR 68 [0 ffffffff 7 800] ------- [14:255 15:255 32 0] 3 [1 2] [0 2 0 0->0] [0 0 0 0->0]
r 1.067351136 _12_ MAC  --- 9 DSR 68 [0 ffffffff 7 800] ------- [14:255 15:255 32 0] 3 [1 2] [0 2 0 0->0] [0 0 0 0->0]
r 1.067351151 _4_ MAC  --- 9 DSR 68 [0 ffffffff 7 800] ------- [14:255 15:255 32 0] 3 [1 2] [0 2 0 0->0] [0 0 0 0->0]
r 1.067351166 _9_ MAC  --- 9 DSR 68 [0 ffffffff 7 800] ------- [14:255 15:255 32 0] 3 [1 2] [0 2 0 0->0] [0 0 0 0->0]
r 1.067351201 _1_ MAC  --- 9 DSR 68 [0 ffffffff 7 800] ------- [14:255 15:255 32 0] 3 [1 2] [0 2 0 0->0] [0 0 0 0->0]
r 1.067375854 _5_ RTR  --- 9 DSR 68 [0 ffffffff 7 800] ------- [14:255 15:255 32 0] 3 [1 2] [0 2 0 0->0] [0 0 0 0->0]
r 1.067375874 _8_ RTR  --- 9 DSR 68 [0 ffffffff 7 800] ------- [14:255 15:255 32 0] 3 [1 2] [0 2 0 0->0] [0 0 0 0->0]
r 1.067375899 _15_ RTR  --- 9 DSR 68 [0 ffffffff 7 800] ------- [14:255 15:255 32 0] 3 [1 2] [0 2 0 0->0] [0 0 0 0->0]
r 1.067376034 _6_ RTR  --- 9 DSR 68 [0 ffffffff 7 800] ------- [14:255 15:255 32 0] 3 [1 2] [0 2 0 0->0] [0 0 0 0->0]
r 1.067376136 _12_ RTR  --- 9 DSR 68 [0 ffffffff 7 800] ------- [14:255 15:255 32 0] 3 [1 2] [0 2 0 0->0] [0 0 0 0->0]
r 1.067376151 _4_ RTR  --- 9 DSR 68 [0 ffffffff 7 800] ------- [14:255 15:255 32 0] 3 [1 2] [0 2 0 0->0] [0 0 0 0->0]
r 1.067376166 _9_ RTR  --- 9 DSR 68 [0 ffffffff 7 800] ------- [14:255 15:255 32 0] 3 [1 2] [0 2 0 0->0] [0 0 0 0->0]
r 1.067376201 _1_ RTR  --- 9 DSR 68 [0 ffffffff 7 800] ------- [14:255 15:255 32 0] 3 [1 2] [0 2 0 0->0] [0 0 0 0->0]
f 1.067396853 _11_ RTR  --- 7 DSR 48 [0 ffffffff 0 800] ------- [0:255 6:255 32 0] 2 [1 2] [0 2 0 0->0] [0 0 0 0->0]
s 1.067480874 _8_ MAC  --- 0 RTS 44 [52e f 8 0] 
r 1.067833557 _15_ MAC  --- 0 RTS 44 [52e f 8 0] 
s 1.067843557 _15_ MAC  --- 0 CTS 38 [3f4 8 0 0] 
r 1.068148241 _8_ MAC  --- 0 CTS 38 [3f4 8 0 0] 
s 1.068158241 _8_ MAC  --- 0 ARP 86 [13a f 8 806] ------- [REPLY 8/8 15/15]
f 1.068444690 _6_ RTR  --- 9 DSR 120 [0 ffffffff 5 800] ------- [14:255 15:255 32 0] 5 [1 2] [0 2 0 0->0] [0 0 0 0->0]
f 1.068469738 _3_ RTR  --- 9 DSR 92 [0 ffffffff 2 800] ------- [14:255 15:255 32 0] 4 [1 2] [0 2 0 0->0] [0 0 0 0->0]
r 1.068846924 _15_ MAC  --- 0 ARP 28 [13a f 8 806] ------- [REPLY 8/8 15/15]
s 1.068856924 _15_ MAC  --- 0 ACK 38 [0 8 0 0] 
r 1.069161607 _8_ MAC  --- 0 ACK 38 [0 8 0 0] 
s 1.069301124 _6_ MAC  --- 9 DSR 178 [0 ffffffff 6 800] ------- [14:255 15:255 32 0] 5 [1 2] [0 2 0 0->0] [0 0 0 0->0]
r 1.070725605 _15_ MAC  --- 9 DSR 120 [0 ffffffff 6 800] ------- [14:255 15:255 32 0] 5 [1 2] [0 2 0 0->0] [0 0 0 0->0]
r 1.070725648 _7_ MAC  --- 9 DSR 120 [0 ffffffff 6 800] ------- [14:255 15:255 32 0] 5 [1 2] [0 2 0 0->0] [0 0 0 0->0]
r 1.070725687 _5_ MAC  --- 9 DSR 120 [0 ffffffff 6 800] ------- [14:255 15:255 32 0] 5 [1 2] [0 2 0 0->0] [0 0 0 0->0]
r 1.070725750 _4_ MAC  --- 9 DSR 120 [0 ffffffff 6 800] ------- [14:255 15:255 32 0] 5 [1 2] [0 2 0 0->0] [0 0 0 0->0]
r 1.070750605 _15_ RTR  --- 9 DSR 120 [0 ffffffff 6 800] ------- [14:255 15:255 32 0] 5 [1 2] [0 2 0 0->0] [0 0 0 0->0]
r 1.070750648 _7_ RTR  --- 9 DSR 120 [0 ffffffff 6 800] ------- [14:255 15:255 32 0] 5 [1 2] [0 2 0 0->0] [0 0 0 0->0]
r 1.070750687 _5_ RTR  --- 9 DSR 120 [0 ffffffff 6 800] ------- [14:255 15:255 32 0] 5 [1 2] [0 2 0 0->0] [0 0 0 0->0]
r 1.070750750 _4_ RTR  --- 9 DSR 120 [0 ffffffff 6 800] ------- [14:255 15:255 32 0] 5 [1 2] [0 2 0 0->0] [0 0 0 0->0]
s 1.070875750 _4_ MAC  --- 9 DSR 150 [0 ffffffff 4 800] ------- [14:255 15:255 32 0] 4 [1 2] [0 2 0 0->0] [0 0 0 0->0]
s 1.071452431 _15_ RTR  --- 12 DSR 68 [0 0 0 0] ------- [15:255 14:255 254 5] 5 [0 2] [1 2 5 14->15] [0 0 0 0->0]
s 1.071912610 _15_ RTR  --- 11 DSR 52 [0 0 0 0] ------- [15:255 14:255 254 12] 3 [0 2] [1 2 3 14->15] [0 0 0 0->0]
r 1.072076067 _5_ MAC  --- 9 DSR 92 [0 ffffffff 4 800] ------- [14:255 15:255 32 0] 4 [1 2] [0 2 0 0->0] [0 0 0 0->0]
r 1.072076129 _3_ MAC  --- 9 DSR 92 [0 ffffffff 4 800] ------- [14:255 15:255 32 0] 4 [1 2] [0 2 0 0->0] [0 0 0 0->0]
r 1.072076367 _1_ MAC  --- 9 DSR 92 [0 ffffffff 4 800] ------- [14:255 15:255 32 0] 4 [1 2] [0 2 0 0->0] [0 0 0 0->0]
r 1.072076376 _6_ MAC  --- 9 DSR 92 [0 ffffffff 4 800] ------- [14:255 15:255 32 0] 4 [1 2] [0 2 0 0->0] [0 0 0 0->0]
r 1.072076391 _7_ MAC  --- 9 DSR 92 [0 ffffffff 4 800] ------- [14:255 15:255 32 0] 4 [1 2] [0 2 0 0->0] [0 0 0 0->0]
r 1.072076467 _2_ MAC  --- 9 DSR 92 [0 ffffffff 4 800] ------- [14:255 15:255 32 0] 4 [1 2] [0 2 0 0->0] [0 0 0 0->0]
r 1.072076561 _8_ MAC  --- 9 DSR 92 [0 ffffffff 4 800] ------- [14:255 15:255 32 0] 4 [1 2] [0 2 0 0->0] [0 0 0 0->0]
r 1.072101067 _5_ RTR  --- 9 DSR 92 [0 ffffffff 4 800] ------- [14:255 15:255 32 0] 4 [1 2] [0 2 0 0->0] [0 0 0 0->0]
r 1.072101129 _3_ RTR  --- 9 DSR 92 [0 ffffffff 4 800] ------- [14:255 15:255 32 0] 4 [1 2] [0 2 0 0->0] [0 0 0 0->0]
r 1.072101367 _1_ RTR  --- 9 DSR 92 [0 ffffffff 4 800] ------- [14:255 15:255 32 0] 4 [1 2] [0 2 0 0->0] [0 0 0 0->0]